<?xml version="1.0" encoding="UTF-8"?>

<!-- generated on 2025-04-22 13:18:18 by Eclipse SUMO GUI Version 1.22.0
<sumoConfiguration xmlns:xsi="http://www.w3.org/2001/XMLSchema-instance" xsi:noNamespaceSchemaLocation="http://sumo.dlr.de/xsd/sumoConfiguration.xsd">

    <input>
        <net-file value="my_intersection.net.xml"/>
        <route-files value="random_traffic.rou.xml"/>
        <additional-files value="tls_program.add.xml"/>
    </input>

    <output>
        <tripinfo-output value="outputs\drl_tripinfo.xml"/>
    </output>

    <time>
        <begin value="0"/>
        <end value="1800"/>
    </time>

    <processing>
        <ignore-route-errors value="true"/>
        <time-to-teleport value="-1"/>
        <waiting-time-memory value="1000"/>
    </processing>

    <report>
        <no-warnings value="true"/>
        <duration-log.disable value="true"/>
        <no-step-log value="true"/>
    </report>

    <traci_server>
        <remote-port value="8823"/>
    </traci_server>

    <random_number>
        <random value="true"/>
        <seed value="43"/>
    </random_number>

    <gui_only>
        <start value="true"/>
        <delay value="150"/>
        <tracker-interval value="0.1"/>
    </gui_only>

</sumoConfiguration>
-->

<tripinfos xmlns:xsi="http://www.w3.org/2001/XMLSchema-instance" xsi:noNamespaceSchemaLocation="http://sumo.dlr.de/xsd/tripinfo_file.xsd">
    <tripinfo id="veh_170" depart="1.00" departLane="edge_W_in_0" departPos="12.10" departSpeed="0.00" departDelay="0.00" arrival="43.00" arrivalLane="edge_S_out_0" arrivalPos="189.60" arrivalSpeed="10.50" duration="42.00" routeLength="376.13" waitingTime="0.00" waitingCount="0" stopTime="0.00" timeLoss="7.30" rerouteNo="0" devices="tripinfo_veh_170 routing_veh_170" vType="TRUCK" speedFactor="0.90" vaporized=""/>
    <tripinfo id="veh_192" depart="4.00" departLane="edge_N_in_0" departPos="5.10" departSpeed="0.00" departDelay="0.00" arrival="47.00" arrivalLane="edge_S_out_1" arrivalPos="189.60" arrivalSpeed="13.27" duration="43.00" routeLength="394.90" waitingTime="3.00" waitingCount="1" stopTime="0.00" timeLoss="13.68" rerouteNo="0" devices="tripinfo_veh_192 routing_veh_192" vType="CAR" speedFactor="1.00" vaporized=""/>
    <tripinfo id="veh_593" depart="12.00" departLane="edge_N_in_0" departPos="5.10" departSpeed="0.00" departDelay="0.00" arrival="52.00" arrivalLane="edge_E_out_1" arrivalPos="189.60" arrivalSpeed="11.03" duration="40.00" routeLength="393.45" waitingTime="0.00" waitingCount="0" stopTime="0.00" timeLoss="6.08" rerouteNo="0" devices="tripinfo_veh_593 routing_veh_593" vType="CAR" speedFactor="0.87" vaporized=""/>
    <tripinfo id="veh_675" depart="17.00" departLane="edge_N_in_0" departPos="5.10" departSpeed="0.00" departDelay="0.00" arrival="54.00" arrivalLane="edge_E_out_1" arrivalPos="189.60" arrivalSpeed="13.00" duration="37.00" routeLength="393.45" waitingTime="0.00" waitingCount="0" stopTime="0.00" timeLoss="7.41" rerouteNo="0" devices="tripinfo_veh_675 routing_veh_675" vType="CAR" speedFactor="1.13" vaporized=""/>
    <tripinfo id="veh_111" depart="21.00" departLane="edge_W_in_0" departPos="5.10" departSpeed="0.00" departDelay="2.00" arrival="62.00" arrivalLane="edge_N_out_1" arrivalPos="189.60" arrivalSpeed="12.00" duration="41.00" routeLength="393.45" waitingTime="0.00" waitingCount="0" stopTime="0.00" timeLoss="9.65" rerouteNo="0" devices="tripinfo_veh_111 routing_veh_111" vType="CAR" speedFactor="0.94" vaporized=""/>
    <tripinfo id="veh_646" depart="15.00" departLane="edge_W_in_0" departPos="2.60" departSpeed="0.00" departDelay="0.00" arrival="63.00" arrivalLane="edge_S_out_0" arrivalPos="189.60" arrivalSpeed="15.36" duration="48.00" routeLength="385.63" waitingTime="5.00" waitingCount="1" stopTime="0.00" timeLoss="22.79" rerouteNo="0" devices="tripinfo_veh_646 routing_veh_646" vType="MOTORCYCLE" speedFactor="1.15" vaporized=""/>
    <tripinfo id="veh_645" depart="12.00" departLane="edge_W_in_0" departPos="12.10" departSpeed="0.00" departDelay="0.00" arrival="66.00" arrivalLane="edge_E_out_0" arrivalPos="189.60" arrivalSpeed="10.49" duration="54.00" routeLength="387.90" waitingTime="7.00" waitingCount="1" stopTime="0.00" timeLoss="18.99" rerouteNo="0" devices="tripinfo_veh_645 routing_veh_645" vType="TRUCK" speedFactor="1.01" vaporized=""/>
    <tripinfo id="veh_585" depart="18.00" departLane="edge_W_in_0" departPos="2.60" departSpeed="0.00" departDelay="0.00" arrival="66.00" arrivalLane="edge_S_out_0" arrivalPos="189.60" arrivalSpeed="14.26" duration="48.00" routeLength="385.63" waitingTime="4.00" waitingCount="1" stopTime="0.00" timeLoss="20.49" rerouteNo="0" devices="tripinfo_veh_585 routing_veh_585" vType="MOTORCYCLE" speedFactor="1.03" vaporized=""/>
    <tripinfo id="veh_671" depart="24.00" departLane="edge_E_in_0" departPos="5.10" departSpeed="0.00" departDelay="0.00" arrival="68.00" arrivalLane="edge_S_out_1" arrivalPos="189.60" arrivalSpeed="13.16" duration="44.00" routeLength="393.45" waitingTime="4.00" waitingCount="1" stopTime="0.00" timeLoss="14.47" rerouteNo="0" devices="tripinfo_veh_671 routing_veh_671" vType="CAR" speedFactor="1.13" vaporized=""/>
    <tripinfo id="veh_138" depart="33.00" departLane="edge_S_in_0" departPos="2.60" departSpeed="0.00" departDelay="0.00" arrival="75.00" arrivalLane="edge_E_out_0" arrivalPos="189.60" arrivalSpeed="14.33" duration="42.00" routeLength="385.63" waitingTime="6.00" waitingCount="1" stopTime="0.00" timeLoss="14.71" rerouteNo="0" devices="tripinfo_veh_138 routing_veh_138" vType="MOTORCYCLE" speedFactor="1.07" vaporized=""/>
    <tripinfo id="veh_465" depart="38.00" departLane="edge_S_in_0" departPos="2.60" departSpeed="0.00" departDelay="1.00" arrival="76.00" arrivalLane="edge_E_out_0" arrivalPos="189.60" arrivalSpeed="15.83" duration="38.00" routeLength="385.63" waitingTime="4.00" waitingCount="1" stopTime="0.00" timeLoss="12.90" rerouteNo="0" devices="tripinfo_veh_465 routing_veh_465" vType="MOTORCYCLE" speedFactor="1.14" vaporized=""/>
    <tripinfo id="veh_348" depart="35.00" departLane="edge_N_in_0" departPos="5.10" departSpeed="0.00" departDelay="0.00" arrival="77.00" arrivalLane="edge_S_out_1" arrivalPos="189.60" arrivalSpeed="12.17" duration="42.00" routeLength="394.90" waitingTime="1.00" waitingCount="1" stopTime="0.00" timeLoss="11.16" rerouteNo="0" devices="tripinfo_veh_348 routing_veh_348" vType="CAR" speedFactor="0.94" vaporized=""/>
    <tripinfo id="veh_499" depart="38.00" departLane="edge_N_in_0" departPos="5.10" departSpeed="0.00" departDelay="1.00" arrival="80.00" arrivalLane="edge_S_out_1" arrivalPos="189.60" arrivalSpeed="11.05" duration="42.00" routeLength="394.90" waitingTime="0.00" waitingCount="0" stopTime="0.00" timeLoss="9.16" rerouteNo="0" devices="tripinfo_veh_499 routing_veh_499" vType="CAR" speedFactor="0.88" vaporized=""/>
    <tripinfo id="veh_135" depart="21.00" departLane="edge_N_in_0" departPos="12.10" departSpeed="0.00" departDelay="2.00" arrival="81.00" arrivalLane="edge_S_out_0" arrivalPos="189.60" arrivalSpeed="10.48" duration="60.00" routeLength="387.90" waitingTime="13.00" waitingCount="1" stopTime="0.00" timeLoss="24.95" rerouteNo="0" devices="tripinfo_veh_135 routing_veh_135" vType="TRUCK" speedFactor="0.99" vaporized=""/>
    <tripinfo id="veh_125" depart="42.00" departLane="edge_N_in_0" departPos="12.10" departSpeed="0.00" departDelay="2.00" arrival="83.00" arrivalLane="edge_S_out_1" arrivalPos="189.60" arrivalSpeed="10.55" duration="41.00" routeLength="387.90" waitingTime="0.00" waitingCount="0" stopTime="0.00" timeLoss="5.94" rerouteNo="0" devices="tripinfo_veh_125 routing_veh_125" vType="TRUCK" speedFactor="1.03" vaporized=""/>
    <tripinfo id="veh_404" depart="35.00" departLane="edge_S_in_0" departPos="5.10" departSpeed="0.00" departDelay="0.00" arrival="85.00" arrivalLane="edge_W_out_1" arrivalPos="189.60" arrivalSpeed="13.27" duration="50.00" routeLength="393.45" waitingTime="6.00" waitingCount="2" stopTime="0.00" timeLoss="20.45" rerouteNo="0" devices="tripinfo_veh_404 routing_veh_404" vType="CAR" speedFactor="1.04" vaporized=""/>
    <tripinfo id="veh_627" depart="52.00" departLane="edge_N_in_0" departPos="5.10" departSpeed="0.00" departDelay="0.00" arrival="87.00" arrivalLane="edge_E_out_1" arrivalPos="189.60" arrivalSpeed="12.56" duration="35.00" routeLength="393.45" waitingTime="0.00" waitingCount="0" stopTime="0.00" timeLoss="5.18" rerouteNo="0" devices="tripinfo_veh_627 routing_veh_627" vType="CAR" speedFactor="1.02" vaporized=""/>
    <tripinfo id="veh_545" depart="45.00" departLane="edge_E_in_0" departPos="5.10" departSpeed="0.00" departDelay="0.00" arrival="91.00" arrivalLane="edge_N_out_0" arrivalPos="189.60" arrivalSpeed="12.88" duration="46.00" routeLength="383.13" waitingTime="8.00" waitingCount="1" stopTime="0.00" timeLoss="17.14" rerouteNo="0" devices="tripinfo_veh_545 routing_veh_545" vType="CAR" speedFactor="1.05" vaporized=""/>
    <tripinfo id="veh_649" depart="66.00" departLane="edge_E_in_0" departPos="2.60" departSpeed="0.00" departDelay="0.00" arrival="99.00" arrivalLane="edge_W_out_0" arrivalPos="189.60" arrivalSpeed="12.70" duration="33.00" routeLength="397.40" waitingTime="0.00" waitingCount="0" stopTime="0.00" timeLoss="4.00" rerouteNo="0" devices="tripinfo_veh_649 routing_veh_649" vType="MOTORCYCLE" speedFactor="0.99" vaporized=""/>
    <tripinfo id="veh_377" depart="64.00" departLane="edge_W_in_0" departPos="5.10" departSpeed="0.00" departDelay="0.00" arrival="101.00" arrivalLane="edge_S_out_0" arrivalPos="189.60" arrivalSpeed="12.60" duration="37.00" routeLength="383.13" waitingTime="0.00" waitingCount="0" stopTime="0.00" timeLoss="5.84" rerouteNo="0" devices="tripinfo_veh_377 routing_veh_377" vType="CAR" speedFactor="0.92" vaporized=""/>
    <tripinfo id="veh_548" depart="58.00" departLane="edge_N_in_0" departPos="5.10" departSpeed="0.00" departDelay="0.00" arrival="106.00" arrivalLane="edge_W_out_0" arrivalPos="189.60" arrivalSpeed="12.46" duration="48.00" routeLength="383.13" waitingTime="9.00" waitingCount="1" stopTime="0.00" timeLoss="19.37" rerouteNo="0" devices="tripinfo_veh_548 routing_veh_548" vType="CAR" speedFactor="1.01" vaporized=""/>
    <tripinfo id="veh_323" depart="66.00" departLane="edge_N_in_0" departPos="5.10" departSpeed="0.00" departDelay="0.00" arrival="109.00" arrivalLane="edge_W_out_0" arrivalPos="189.60" arrivalSpeed="13.53" duration="43.00" routeLength="383.13" waitingTime="2.00" waitingCount="1" stopTime="0.00" timeLoss="13.69" rerouteNo="0" devices="tripinfo_veh_323 routing_veh_323" vType="CAR" speedFactor="1.05" vaporized=""/>
    <tripinfo id="veh_16" depart="78.00" departLane="edge_S_in_0" departPos="2.60" departSpeed="0.00" departDelay="0.00" arrival="112.00" arrivalLane="edge_W_out_1" arrivalPos="189.60" arrivalSpeed="13.86" duration="34.00" routeLength="395.95" waitingTime="0.00" waitingCount="0" stopTime="0.00" timeLoss="5.47" rerouteNo="0" devices="tripinfo_veh_16 routing_veh_16" vType="MOTORCYCLE" speedFactor="1.04" vaporized=""/>
    <tripinfo id="veh_624" depart="78.00" departLane="edge_N_in_0" departPos="5.10" departSpeed="0.00" departDelay="0.00" arrival="115.00" arrivalLane="edge_W_out_0" arrivalPos="189.60" arrivalSpeed="11.52" duration="37.00" routeLength="383.13" waitingTime="0.00" waitingCount="0" stopTime="0.00" timeLoss="5.36" rerouteNo="0" devices="tripinfo_veh_624 routing_veh_624" vType="CAR" speedFactor="0.91" vaporized=""/>
    <tripinfo id="veh_119" depart="81.00" departLane="edge_N_in_0" departPos="5.10" departSpeed="0.00" departDelay="0.00" arrival="116.00" arrivalLane="edge_W_out_0" arrivalPos="189.60" arrivalSpeed="13.57" duration="35.00" routeLength="383.13" waitingTime="0.00" waitingCount="0" stopTime="0.00" timeLoss="6.08" rerouteNo="0" devices="tripinfo_veh_119 routing_veh_119" vType="CAR" speedFactor="0.99" vaporized=""/>
    <tripinfo id="veh_498" depart="73.00" departLane="edge_W_in_0" departPos="5.10" departSpeed="0.00" departDelay="0.00" arrival="121.00" arrivalLane="edge_E_out_0" arrivalPos="189.60" arrivalSpeed="12.66" duration="48.00" routeLength="394.90" waitingTime="9.00" waitingCount="1" stopTime="0.00" timeLoss="19.36" rerouteNo="0" devices="tripinfo_veh_498 routing_veh_498" vType="CAR" speedFactor="1.27" vaporized=""/>
    <tripinfo id="veh_686" depart="84.00" departLane="edge_W_in_0" departPos="5.10" departSpeed="0.00" departDelay="0.00" arrival="122.00" arrivalLane="edge_E_out_1" arrivalPos="189.60" arrivalSpeed="12.63" duration="38.00" routeLength="394.90" waitingTime="0.00" waitingCount="0" stopTime="0.00" timeLoss="9.55" rerouteNo="0" devices="tripinfo_veh_686 routing_veh_686" vType="CAR" speedFactor="1.01" vaporized=""/>
    <tripinfo id="veh_272" depart="71.00" departLane="edge_W_in_0" departPos="2.60" departSpeed="0.00" departDelay="0.00" arrival="124.00" arrivalLane="edge_N_out_1" arrivalPos="189.60" arrivalSpeed="10.84" duration="53.00" routeLength="395.95" waitingTime="10.00" waitingCount="1" stopTime="0.00" timeLoss="18.88" rerouteNo="0" devices="tripinfo_veh_272 routing_veh_272" vType="MOTORCYCLE" speedFactor="0.86" vaporized=""/>
    <tripinfo id="veh_308" depart="86.00" departLane="edge_W_in_0" departPos="2.60" departSpeed="0.00" departDelay="1.00" arrival="124.00" arrivalLane="edge_S_out_0" arrivalPos="189.60" arrivalSpeed="14.18" duration="38.00" routeLength="385.63" waitingTime="0.00" waitingCount="0" stopTime="0.00" timeLoss="10.70" rerouteNo="0" devices="tripinfo_veh_308 routing_veh_308" vType="MOTORCYCLE" speedFactor="1.06" vaporized=""/>
    <tripinfo id="veh_492" depart="81.00" departLane="edge_W_in_0" departPos="2.60" departSpeed="0.00" departDelay="0.00" arrival="125.00" arrivalLane="edge_E_out_0" arrivalPos="189.60" arrivalSpeed="11.59" duration="44.00" routeLength="397.40" waitingTime="2.00" waitingCount="1" stopTime="0.00" timeLoss="10.29" rerouteNo="0" devices="tripinfo_veh_492 routing_veh_492" vType="MOTORCYCLE" speedFactor="0.85" vaporized=""/>
    <tripinfo id="veh_609" depart="92.00" departLane="edge_E_in_0" departPos="2.60" departSpeed="0.00" departDelay="0.00" arrival="125.00" arrivalLane="edge_W_out_0" arrivalPos="189.60" arrivalSpeed="13.38" duration="33.00" routeLength="397.40" waitingTime="0.00" waitingCount="0" stopTime="0.00" timeLoss="3.77" rerouteNo="0" devices="tripinfo_veh_609 routing_veh_609" vType="MOTORCYCLE" speedFactor="0.98" vaporized=""/>
    <tripinfo id="veh_210" depart="89.00" departLane="edge_W_in_0" departPos="5.10" departSpeed="0.00" departDelay="0.00" arrival="126.00" arrivalLane="edge_S_out_0" arrivalPos="189.60" arrivalSpeed="13.72" duration="37.00" routeLength="383.13" waitingTime="0.00" waitingCount="0" stopTime="0.00" timeLoss="8.81" rerouteNo="0" devices="tripinfo_veh_210 routing_veh_210" vType="CAR" speedFactor="1.06" vaporized=""/>
    <tripinfo id="veh_282" depart="87.00" departLane="edge_E_in_0" departPos="12.10" departSpeed="0.00" departDelay="0.00" arrival="130.00" arrivalLane="edge_S_out_1" arrivalPos="189.60" arrivalSpeed="10.38" duration="43.00" routeLength="386.45" waitingTime="0.00" waitingCount="0" stopTime="0.00" timeLoss="7.31" rerouteNo="0" devices="tripinfo_veh_282 routing_veh_282" vType="TRUCK" speedFactor="0.98" vaporized=""/>
    <tripinfo id="veh_290" depart="94.00" departLane="edge_E_in_0" departPos="5.10" departSpeed="0.00" departDelay="1.00" arrival="132.00" arrivalLane="edge_N_out_0" arrivalPos="189.60" arrivalSpeed="11.19" duration="38.00" routeLength="383.13" waitingTime="0.00" waitingCount="0" stopTime="0.00" timeLoss="6.17" rerouteNo="0" devices="tripinfo_veh_290 routing_veh_290" vType="CAR" speedFactor="0.90" vaporized=""/>
    <tripinfo id="veh_687" depart="100.00" departLane="edge_N_in_0" departPos="5.10" departSpeed="0.00" departDelay="0.00" arrival="134.00" arrivalLane="edge_S_out_0" arrivalPos="189.60" arrivalSpeed="12.55" duration="34.00" routeLength="394.90" waitingTime="0.00" waitingCount="0" stopTime="0.00" timeLoss="5.48" rerouteNo="0" devices="tripinfo_veh_687 routing_veh_687" vType="CAR" speedFactor="1.07" vaporized=""/>
    <tripinfo id="veh_98" depart="87.00" departLane="edge_S_in_0" departPos="2.60" departSpeed="0.00" departDelay="0.00" arrival="135.00" arrivalLane="edge_E_out_0" arrivalPos="189.60" arrivalSpeed="13.28" duration="48.00" routeLength="385.63" waitingTime="12.00" waitingCount="1" stopTime="0.00" timeLoss="19.91" rerouteNo="0" devices="tripinfo_veh_98 routing_veh_98" vType="MOTORCYCLE" speedFactor="1.04" vaporized=""/>
    <tripinfo id="veh_633" depart="89.00" departLane="edge_S_in_0" departPos="5.10" departSpeed="0.00" departDelay="2.00" arrival="140.00" arrivalLane="edge_W_out_1" arrivalPos="189.60" arrivalSpeed="12.33" duration="51.00" routeLength="393.45" waitingTime="10.00" waitingCount="2" stopTime="0.00" timeLoss="18.99" rerouteNo="0" devices="tripinfo_veh_633 routing_veh_633" vType="CAR" speedFactor="0.92" vaporized=""/>
    <tripinfo id="veh_26" depart="101.00" departLane="edge_S_in_0" departPos="2.60" departSpeed="0.00" departDelay="0.00" arrival="140.00" arrivalLane="edge_E_out_0" arrivalPos="189.60" arrivalSpeed="11.88" duration="39.00" routeLength="385.63" waitingTime="0.00" waitingCount="0" stopTime="0.00" timeLoss="7.09" rerouteNo="0" devices="tripinfo_veh_26 routing_veh_26" vType="MOTORCYCLE" speedFactor="0.92" vaporized=""/>
    <tripinfo id="veh_298" depart="106.00" departLane="edge_S_in_0" departPos="5.10" departSpeed="0.00" departDelay="0.00" arrival="143.00" arrivalLane="edge_N_out_0" arrivalPos="189.60" arrivalSpeed="12.23" duration="37.00" routeLength="394.90" waitingTime="0.00" waitingCount="0" stopTime="0.00" timeLoss="4.06" rerouteNo="0" devices="tripinfo_veh_298 routing_veh_298" vType="CAR" speedFactor="0.89" vaporized=""/>
    <tripinfo id="veh_347" depart="104.00" departLane="edge_N_in_0" departPos="12.10" departSpeed="0.00" departDelay="2.00" arrival="148.00" arrivalLane="edge_E_out_1" arrivalPos="189.60" arrivalSpeed="10.83" duration="44.00" routeLength="386.45" waitingTime="0.00" waitingCount="0" stopTime="0.00" timeLoss="8.49" rerouteNo="0" devices="tripinfo_veh_347 routing_veh_347" vType="TRUCK" speedFactor="0.95" vaporized=""/>
    <tripinfo id="veh_652" depart="114.00" departLane="edge_W_in_0" departPos="5.10" departSpeed="0.00" departDelay="0.00" arrival="150.00" arrivalLane="edge_N_out_1" arrivalPos="189.60" arrivalSpeed="12.55" duration="36.00" routeLength="393.45" waitingTime="0.00" waitingCount="0" stopTime="0.00" timeLoss="6.80" rerouteNo="0" devices="tripinfo_veh_652 routing_veh_652" vType="CAR" speedFactor="1.00" vaporized=""/>
    <tripinfo id="veh_549" depart="117.00" departLane="edge_W_in_0" departPos="2.60" departSpeed="0.00" departDelay="0.00" arrival="152.00" arrivalLane="edge_E_out_1" arrivalPos="189.60" arrivalSpeed="13.22" duration="35.00" routeLength="397.40" waitingTime="0.00" waitingCount="0" stopTime="0.00" timeLoss="5.26" rerouteNo="0" devices="tripinfo_veh_549 routing_veh_549" vType="MOTORCYCLE" speedFactor="0.99" vaporized=""/>
    <tripinfo id="veh_292" depart="100.00" departLane="edge_W_in_0" departPos="12.10" departSpeed="0.00" departDelay="0.00" arrival="156.00" arrivalLane="edge_E_out_0" arrivalPos="189.60" arrivalSpeed="10.40" duration="56.00" routeLength="387.90" waitingTime="9.00" waitingCount="1" stopTime="0.00" timeLoss="21.00" rerouteNo="0" devices="tripinfo_veh_292 routing_veh_292" vType="TRUCK" speedFactor="1.08" vaporized=""/>
    <tripinfo id="veh_558" depart="123.00" departLane="edge_E_in_0" departPos="5.10" departSpeed="0.00" departDelay="0.00" arrival="159.00" arrivalLane="edge_N_out_0" arrivalPos="189.60" arrivalSpeed="12.96" duration="36.00" routeLength="383.13" waitingTime="0.00" waitingCount="0" stopTime="0.00" timeLoss="6.39" rerouteNo="0" devices="tripinfo_veh_558 routing_veh_558" vType="CAR" speedFactor="0.97" vaporized=""/>
    <tripinfo id="veh_29" depart="114.00" departLane="edge_E_in_0" departPos="5.10" departSpeed="0.00" departDelay="0.00" arrival="160.00" arrivalLane="edge_S_out_1" arrivalPos="189.60" arrivalSpeed="11.91" duration="46.00" routeLength="393.45" waitingTime="5.00" waitingCount="1" stopTime="0.00" timeLoss="11.41" rerouteNo="0" devices="tripinfo_veh_29 routing_veh_29" vType="CAR" speedFactor="0.86" vaporized=""/>
    <tripinfo id="veh_335" depart="121.00" departLane="edge_W_in_0" departPos="12.10" departSpeed="0.00" departDelay="1.00" arrival="164.00" arrivalLane="edge_N_out_1" arrivalPos="189.60" arrivalSpeed="10.48" duration="43.00" routeLength="386.45" waitingTime="0.00" waitingCount="0" stopTime="0.00" timeLoss="7.65" rerouteNo="0" devices="tripinfo_veh_335 routing_veh_335" vType="TRUCK" speedFactor="1.02" vaporized=""/>
    <tripinfo id="veh_28" depart="136.00" departLane="edge_S_in_0" departPos="2.60" departSpeed="0.00" departDelay="0.00" arrival="166.00" arrivalLane="edge_E_out_0" arrivalPos="189.60" arrivalSpeed="14.96" duration="30.00" routeLength="385.63" waitingTime="0.00" waitingCount="0" stopTime="0.00" timeLoss="6.05" rerouteNo="0" devices="tripinfo_veh_28 routing_veh_28" vType="MOTORCYCLE" speedFactor="1.18" vaporized=""/>
    <tripinfo id="veh_371" depart="115.00" departLane="edge_S_in_0" departPos="5.10" departSpeed="0.00" departDelay="0.00" arrival="168.00" arrivalLane="edge_N_out_0" arrivalPos="189.60" arrivalSpeed="10.88" duration="53.00" routeLength="394.90" waitingTime="13.00" waitingCount="1" stopTime="0.00" timeLoss="20.27" rerouteNo="0" devices="tripinfo_veh_371 routing_veh_371" vType="CAR" speedFactor="0.87" vaporized=""/>
    <tripinfo id="veh_126" depart="110.00" departLane="edge_N_in_0" departPos="12.10" departSpeed="0.00" departDelay="4.00" arrival="170.00" arrivalLane="edge_W_out_0" arrivalPos="189.60" arrivalSpeed="10.47" duration="60.00" routeLength="376.13" waitingTime="13.00" waitingCount="1" stopTime="0.00" timeLoss="25.70" rerouteNo="0" devices="tripinfo_veh_126 routing_veh_126" vType="TRUCK" speedFactor="0.95" vaporized=""/>
    <tripinfo id="veh_557" depart="123.00" departLane="edge_N_in_0" departPos="2.60" departSpeed="0.00" departDelay="0.00" arrival="171.00" arrivalLane="edge_E_out_1" arrivalPos="189.60" arrivalSpeed="11.28" duration="48.00" routeLength="395.95" waitingTime="7.00" waitingCount="2" stopTime="0.00" timeLoss="15.32" rerouteNo="0" devices="tripinfo_veh_557 routing_veh_557" vType="MOTORCYCLE" speedFactor="0.90" vaporized=""/>
    <tripinfo id="veh_42" depart="113.00" departLane="edge_N_in_0" departPos="2.60" departSpeed="0.00" departDelay="3.00" arrival="172.00" arrivalLane="edge_W_out_0" arrivalPos="189.60" arrivalSpeed="13.55" duration="59.00" routeLength="385.63" waitingTime="13.00" waitingCount="1" stopTime="0.00" timeLoss="29.64" rerouteNo="0" devices="tripinfo_veh_42 routing_veh_42" vType="MOTORCYCLE" speedFactor="0.98" vaporized=""/>
    <tripinfo id="veh_55" depart="118.00" departLane="edge_N_in_0" departPos="2.60" departSpeed="0.00" departDelay="0.00" arrival="175.00" arrivalLane="edge_W_out_0" arrivalPos="189.60" arrivalSpeed="11.55" duration="57.00" routeLength="385.63" waitingTime="11.00" waitingCount="1" stopTime="0.00" timeLoss="23.23" rerouteNo="0" devices="tripinfo_veh_55 routing_veh_55" vType="MOTORCYCLE" speedFactor="0.86" vaporized=""/>
    <tripinfo id="veh_21" depart="138.00" departLane="edge_E_in_0" departPos="2.60" departSpeed="0.00" departDelay="0.00" arrival="181.00" arrivalLane="edge_W_out_0" arrivalPos="189.60" arrivalSpeed="13.08" duration="43.00" routeLength="397.40" waitingTime="6.00" waitingCount="1" stopTime="0.00" timeLoss="14.41" rerouteNo="0" devices="tripinfo_veh_21 routing_veh_21" vType="MOTORCYCLE" speedFactor="1.02" vaporized=""/>
    <tripinfo id="veh_478" depart="145.00" departLane="edge_W_in_0" departPos="5.10" departSpeed="0.00" departDelay="0.00" arrival="181.00" arrivalLane="edge_E_out_1" arrivalPos="189.60" arrivalSpeed="11.48" duration="36.00" routeLength="394.90" waitingTime="0.00" waitingCount="0" stopTime="0.00" timeLoss="4.18" rerouteNo="0" devices="tripinfo_veh_478 routing_veh_478" vType="CAR" speedFactor="0.92" vaporized=""/>
    <tripinfo id="veh_457" depart="136.00" departLane="edge_W_in_0" departPos="12.10" departSpeed="0.00" departDelay="0.00" arrival="186.00" arrivalLane="edge_S_out_0" arrivalPos="189.60" arrivalSpeed="10.61" duration="50.00" routeLength="376.13" waitingTime="4.00" waitingCount="1" stopTime="0.00" timeLoss="14.85" rerouteNo="0" devices="tripinfo_veh_457 routing_veh_457" vType="TRUCK" speedFactor="1.01" vaporized=""/>
    <tripinfo id="veh_393" depart="151.00" departLane="edge_N_in_0" departPos="2.60" departSpeed="0.00" departDelay="0.00" arrival="194.00" arrivalLane="edge_W_out_0" arrivalPos="189.60" arrivalSpeed="14.97" duration="43.00" routeLength="385.63" waitingTime="7.00" waitingCount="1" stopTime="0.00" timeLoss="17.21" rerouteNo="0" devices="tripinfo_veh_393 routing_veh_393" vType="MOTORCYCLE" speedFactor="1.14" vaporized=""/>
    <tripinfo id="veh_684" depart="144.00" departLane="edge_S_in_0" departPos="5.10" departSpeed="0.00" departDelay="0.00" arrival="195.00" arrivalLane="edge_E_out_0" arrivalPos="189.60" arrivalSpeed="13.18" duration="51.00" routeLength="383.13" waitingTime="14.00" waitingCount="1" stopTime="0.00" timeLoss="22.95" rerouteNo="0" devices="tripinfo_veh_684 routing_veh_684" vType="CAR" speedFactor="1.11" vaporized=""/>
    <tripinfo id="veh_442" depart="145.00" departLane="edge_N_in_0" departPos="5.10" departSpeed="0.00" departDelay="0.00" arrival="196.00" arrivalLane="edge_E_out_1" arrivalPos="189.60" arrivalSpeed="12.65" duration="51.00" routeLength="393.45" waitingTime="12.00" waitingCount="1" stopTime="0.00" timeLoss="22.14" rerouteNo="0" devices="tripinfo_veh_442 routing_veh_442" vType="CAR" speedFactor="1.13" vaporized=""/>
    <tripinfo id="veh_183" depart="157.00" departLane="edge_N_in_0" departPos="5.10" departSpeed="0.00" departDelay="0.00" arrival="197.00" arrivalLane="edge_S_out_0" arrivalPos="189.60" arrivalSpeed="13.26" duration="40.00" routeLength="394.90" waitingTime="3.00" waitingCount="1" stopTime="0.00" timeLoss="11.52" rerouteNo="0" devices="tripinfo_veh_183 routing_veh_183" vType="CAR" speedFactor="1.00" vaporized=""/>
    <tripinfo id="veh_250" depart="154.00" departLane="edge_S_in_0" departPos="5.10" departSpeed="0.00" departDelay="0.00" arrival="198.00" arrivalLane="edge_E_out_0" arrivalPos="189.60" arrivalSpeed="13.49" duration="44.00" routeLength="383.13" waitingTime="6.00" waitingCount="1" stopTime="0.00" timeLoss="15.09" rerouteNo="0" devices="tripinfo_veh_250 routing_veh_250" vType="CAR" speedFactor="1.07" vaporized=""/>
    <tripinfo id="veh_166" depart="162.00" departLane="edge_N_in_0" departPos="2.60" departSpeed="0.00" departDelay="0.00" arrival="198.00" arrivalLane="edge_S_out_1" arrivalPos="189.60" arrivalSpeed="11.70" duration="36.00" routeLength="397.40" waitingTime="0.00" waitingCount="0" stopTime="0.00" timeLoss="6.09" rerouteNo="0" devices="tripinfo_veh_166 routing_veh_166" vType="MOTORCYCLE" speedFactor="0.96" vaporized=""/>
    <tripinfo id="veh_4" depart="158.00" departLane="edge_S_in_0" departPos="5.10" departSpeed="0.00" departDelay="0.00" arrival="201.00" arrivalLane="edge_E_out_0" arrivalPos="189.60" arrivalSpeed="13.64" duration="43.00" routeLength="383.13" waitingTime="2.00" waitingCount="1" stopTime="0.00" timeLoss="14.28" rerouteNo="0" devices="tripinfo_veh_4 routing_veh_4" vType="CAR" speedFactor="1.00" vaporized=""/>
    <tripinfo id="veh_460" depart="161.00" departLane="edge_S_in_0" departPos="5.10" departSpeed="0.00" departDelay="2.00" arrival="203.00" arrivalLane="edge_E_out_0" arrivalPos="189.60" arrivalSpeed="13.31" duration="42.00" routeLength="383.13" waitingTime="2.00" waitingCount="1" stopTime="0.00" timeLoss="13.85" rerouteNo="0" devices="tripinfo_veh_460 routing_veh_460" vType="CAR" speedFactor="1.07" vaporized=""/>
    <tripinfo id="veh_555" depart="169.00" departLane="edge_S_in_0" departPos="5.10" departSpeed="0.00" departDelay="0.00" arrival="206.00" arrivalLane="edge_N_out_0" arrivalPos="189.60" arrivalSpeed="13.20" duration="37.00" routeLength="394.90" waitingTime="0.00" waitingCount="0" stopTime="0.00" timeLoss="7.88" rerouteNo="0" devices="tripinfo_veh_555 routing_veh_555" vType="CAR" speedFactor="1.17" vaporized=""/>
    <tripinfo id="veh_564" depart="165.00" departLane="edge_S_in_0" departPos="12.10" departSpeed="0.00" departDelay="3.00" arrival="208.00" arrivalLane="edge_W_out_1" arrivalPos="189.60" arrivalSpeed="10.92" duration="43.00" routeLength="386.45" waitingTime="0.00" waitingCount="0" stopTime="0.00" timeLoss="7.70" rerouteNo="0" devices="tripinfo_veh_564 routing_veh_564" vType="TRUCK" speedFactor="0.92" vaporized=""/>
    <tripinfo id="veh_242" depart="184.00" departLane="edge_E_in_0" departPos="2.60" departSpeed="0.00" departDelay="0.00" arrival="215.00" arrivalLane="edge_N_out_0" arrivalPos="189.60" arrivalSpeed="14.64" duration="31.00" routeLength="385.63" waitingTime="0.00" waitingCount="0" stopTime="0.00" timeLoss="5.55" rerouteNo="0" devices="tripinfo_veh_242 routing_veh_242" vType="MOTORCYCLE" speedFactor="1.14" vaporized=""/>
    <tripinfo id="veh_107" depart="169.00" departLane="edge_E_in_0" departPos="12.10" departSpeed="0.00" departDelay="0.00" arrival="216.00" arrivalLane="edge_S_out_1" arrivalPos="189.60" arrivalSpeed="10.52" duration="47.00" routeLength="386.45" waitingTime="0.00" waitingCount="0" stopTime="0.00" timeLoss="11.60" rerouteNo="0" devices="tripinfo_veh_107 routing_veh_107" vType="TRUCK" speedFactor="1.03" vaporized=""/>
    <tripinfo id="veh_326" depart="181.00" departLane="edge_W_in_0" departPos="5.10" departSpeed="0.00" departDelay="0.00" arrival="220.00" arrivalLane="edge_E_out_0" arrivalPos="189.60" arrivalSpeed="10.92" duration="39.00" routeLength="394.90" waitingTime="0.00" waitingCount="0" stopTime="0.00" timeLoss="4.11" rerouteNo="0" devices="tripinfo_veh_326 routing_veh_326" vType="CAR" speedFactor="0.83" vaporized=""/>