<?xml version="1.0" encoding="UTF-8"?>

<!-- generated on 2025-05-04 22:35:07 by Eclipse SUMO GUI Version 1.22.0
<sumoConfiguration xmlns:xsi="http://www.w3.org/2001/XMLSchema-instance" xsi:noNamespaceSchemaLocation="http://sumo.dlr.de/xsd/sumoConfiguration.xsd">

    <input>
        <net-file value="my_intersection.net.xml"/>
        <route-files value="random_traffic.rou.xml"/>
        <additional-files value="tls_program.add.xml"/>
    </input>

    <output>
        <summary-output value="outputs\final_fixed_summary.xml"/>
        <tripinfo-output value="outputs\final_fixed_tripinfo.xml"/>
    </output>

    <time>
        <begin value="0"/>
        <end value="7200"/>
    </time>

    <processing>
        <ignore-route-errors value="true"/>
        <time-to-teleport value="-1"/>
        <waiting-time-memory value="10000"/>
    </processing>

    <report>
        <duration-log.disable value="true"/>
        <no-step-log value="true"/>
    </report>

    <random_number>
        <seed value="42"/>
    </random_number>

    <gui_only>
        <start value="true"/>
        <delay value="150"/>
        <tracker-interval value="0.1"/>
    </gui_only>

</sumoConfiguration>
-->

<tripinfos xmlns:xsi="http://www.w3.org/2001/XMLSchema-instance" xsi:noNamespaceSchemaLocation="http://sumo.dlr.de/xsd/tripinfo_file.xsd">
    <tripinfo id="veh_234" depart="6.00" departLane="edge_N_in_0" departPos="2.60" departSpeed="0.00" departDelay="0.00" arrival="39.00" arrivalLane="edge_W_out_0" arrivalPos="189.60" arrivalSpeed="14.50" duration="33.00" routeLength="385.63" waitingTime="0.00" waitingCount="0" stopTime="0.00" timeLoss="5.90" rerouteNo="0" devices="tripinfo_veh_234 routing_veh_234" vType="MOTORCYCLE" speedFactor="1.07" vaporized=""/>
    <tripinfo id="veh_126" depart="13.00" departLane="edge_S_in_0" departPos="5.10" departSpeed="0.00" departDelay="0.00" arrival="48.00" arrivalLane="edge_N_out_0" arrivalPos="189.60" arrivalSpeed="12.47" duration="35.00" routeLength="394.90" waitingTime="0.00" waitingCount="0" stopTime="0.00" timeLoss="4.31" rerouteNo="0" devices="tripinfo_veh_126 routing_veh_126" vType="CAR" speedFactor="0.93" vaporized=""/>
    <tripinfo id="veh_547" depart="19.00" departLane="edge_S_in_0" departPos="5.10" departSpeed="0.00" departDelay="0.00" arrival="53.00" arrivalLane="edge_E_out_0" arrivalPos="189.60" arrivalSpeed="13.51" duration="34.00" routeLength="383.13" waitingTime="0.00" waitingCount="0" stopTime="0.00" timeLoss="5.39" rerouteNo="0" devices="tripinfo_veh_547 routing_veh_547" vType="CAR" speedFactor="1.08" vaporized=""/>
    <tripinfo id="veh_505" depart="23.00" departLane="edge_S_in_0" departPos="2.60" departSpeed="0.00" departDelay="0.00" arrival="56.00" arrivalLane="edge_E_out_0" arrivalPos="189.60" arrivalSpeed="13.16" duration="33.00" routeLength="385.63" waitingTime="0.00" waitingCount="0" stopTime="0.00" timeLoss="5.27" rerouteNo="0" devices="tripinfo_veh_505 routing_veh_505" vType="MOTORCYCLE" speedFactor="1.03" vaporized=""/>
    <tripinfo id="veh_352" depart="5.00" departLane="edge_E_in_0" departPos="5.10" departSpeed="0.00" departDelay="0.00" arrival="63.00" arrivalLane="edge_W_out_0" arrivalPos="189.60" arrivalSpeed="12.89" duration="58.00" routeLength="394.90" waitingTime="19.00" waitingCount="1" stopTime="0.00" timeLoss="27.82" rerouteNo="0" devices="tripinfo_veh_352 routing_veh_352" vType="CAR" speedFactor="0.95" vaporized=""/>
    <tripinfo id="veh_542" depart="11.00" departLane="edge_E_in_0" departPos="5.10" departSpeed="0.00" departDelay="0.00" arrival="66.00" arrivalLane="edge_S_out_1" arrivalPos="189.60" arrivalSpeed="11.93" duration="55.00" routeLength="393.45" waitingTime="13.00" waitingCount="1" stopTime="0.00" timeLoss="21.11" rerouteNo="0" devices="tripinfo_veh_542 routing_veh_542" vType="CAR" speedFactor="0.88" vaporized=""/>
    <tripinfo id="veh_31" depart="8.00" departLane="edge_W_in_0" departPos="12.10" departSpeed="0.00" departDelay="0.00" arrival="67.00" arrivalLane="edge_S_out_0" arrivalPos="189.60" arrivalSpeed="11.03" duration="59.00" routeLength="376.13" waitingTime="12.00" waitingCount="1" stopTime="0.00" timeLoss="24.65" rerouteNo="0" devices="tripinfo_veh_31 routing_veh_31" vType="TRUCK" speedFactor="1.08" vaporized=""/>
    <tripinfo id="veh_243" depart="25.00" departLane="edge_E_in_0" departPos="5.10" departSpeed="0.00" departDelay="0.00" arrival="68.00" arrivalLane="edge_S_out_1" arrivalPos="189.60" arrivalSpeed="10.83" duration="43.00" routeLength="393.45" waitingTime="1.00" waitingCount="1" stopTime="0.00" timeLoss="9.25" rerouteNo="0" devices="tripinfo_veh_243 routing_veh_243" vType="CAR" speedFactor="0.88" vaporized=""/>
    <tripinfo id="veh_510" depart="32.00" departLane="edge_E_in_0" departPos="5.10" departSpeed="0.00" departDelay="0.00" arrival="68.00" arrivalLane="edge_N_out_0" arrivalPos="189.60" arrivalSpeed="12.69" duration="36.00" routeLength="383.13" waitingTime="0.00" waitingCount="0" stopTime="0.00" timeLoss="7.03" rerouteNo="0" devices="tripinfo_veh_510 routing_veh_510" vType="CAR" speedFactor="0.99" vaporized=""/>
    <tripinfo id="veh_720" depart="25.00" departLane="edge_W_in_0" departPos="5.10" departSpeed="0.00" departDelay="0.00" arrival="69.00" arrivalLane="edge_N_out_1" arrivalPos="189.60" arrivalSpeed="10.42" duration="44.00" routeLength="393.45" waitingTime="0.00" waitingCount="0" stopTime="0.00" timeLoss="9.13" rerouteNo="0" devices="tripinfo_veh_720 routing_veh_720" vType="CAR" speedFactor="0.84" vaporized=""/>
    <tripinfo id="veh_264" depart="28.00" departLane="edge_W_in_0" departPos="5.10" departSpeed="0.00" departDelay="2.00" arrival="70.00" arrivalLane="edge_S_out_0" arrivalPos="189.60" arrivalSpeed="13.35" duration="42.00" routeLength="383.13" waitingTime="0.00" waitingCount="0" stopTime="0.00" timeLoss="13.01" rerouteNo="0" devices="tripinfo_veh_264 routing_veh_264" vType="CAR" speedFactor="1.00" vaporized=""/>
    <tripinfo id="veh_305" depart="41.00" departLane="edge_W_in_0" departPos="5.10" departSpeed="0.00" departDelay="0.00" arrival="77.00" arrivalLane="edge_S_out_0" arrivalPos="189.60" arrivalSpeed="11.73" duration="36.00" routeLength="383.13" waitingTime="0.00" waitingCount="0" stopTime="0.00" timeLoss="5.27" rerouteNo="0" devices="tripinfo_veh_305 routing_veh_305" vType="CAR" speedFactor="0.94" vaporized=""/>
    <tripinfo id="veh_632" depart="48.00" departLane="edge_W_in_0" departPos="2.60" departSpeed="0.00" departDelay="0.00" arrival="79.00" arrivalLane="edge_E_out_1" arrivalPos="189.60" arrivalSpeed="14.11" duration="31.00" routeLength="397.40" waitingTime="0.00" waitingCount="0" stopTime="0.00" timeLoss="5.50" rerouteNo="0" devices="tripinfo_veh_632 routing_veh_632" vType="MOTORCYCLE" speedFactor="1.13" vaporized=""/>
    <tripinfo id="veh_147" depart="39.00" departLane="edge_E_in_0" departPos="12.10" departSpeed="0.00" departDelay="0.00" arrival="81.00" arrivalLane="edge_N_out_0" arrivalPos="189.60" arrivalSpeed="10.66" duration="42.00" routeLength="376.13" waitingTime="0.00" waitingCount="0" stopTime="0.00" timeLoss="7.24" rerouteNo="0" devices="tripinfo_veh_147 routing_veh_147" vType="TRUCK" speedFactor="0.91" vaporized=""/>
    <tripinfo id="veh_200" depart="52.00" departLane="edge_E_in_0" departPos="5.10" departSpeed="0.00" departDelay="0.00" arrival="85.00" arrivalLane="edge_W_out_0" arrivalPos="189.60" arrivalSpeed="12.86" duration="33.00" routeLength="394.90" waitingTime="0.00" waitingCount="0" stopTime="0.00" timeLoss="4.15" rerouteNo="0" devices="tripinfo_veh_200 routing_veh_200" vType="CAR" speedFactor="1.00" vaporized=""/>
    <tripinfo id="veh_117" depart="46.00" departLane="edge_W_in_0" departPos="12.10" departSpeed="0.00" departDelay="0.00" arrival="88.00" arrivalLane="edge_S_out_0" arrivalPos="189.60" arrivalSpeed="10.99" duration="42.00" routeLength="376.13" waitingTime="0.00" waitingCount="0" stopTime="0.00" timeLoss="6.90" rerouteNo="0" devices="tripinfo_veh_117 routing_veh_117" vType="TRUCK" speedFactor="1.00" vaporized=""/>
    <tripinfo id="veh_185" depart="55.00" departLane="edge_W_in_0" departPos="5.10" departSpeed="0.00" departDelay="1.00" arrival="90.00" arrivalLane="edge_S_out_0" arrivalPos="189.60" arrivalSpeed="13.66" duration="35.00" routeLength="383.13" waitingTime="0.00" waitingCount="0" stopTime="0.00" timeLoss="6.00" rerouteNo="0" devices="tripinfo_veh_185 routing_veh_185" vType="CAR" speedFactor="1.10" vaporized=""/>
    <tripinfo id="veh_381" depart="52.00" departLane="edge_W_in_0" departPos="5.10" departSpeed="0.00" departDelay="1.00" arrival="91.00" arrivalLane="edge_N_out_1" arrivalPos="189.60" arrivalSpeed="11.53" duration="39.00" routeLength="393.45" waitingTime="0.00" waitingCount="0" stopTime="0.00" timeLoss="5.07" rerouteNo="0" devices="tripinfo_veh_381 routing_veh_381" vType="CAR" speedFactor="0.88" vaporized=""/>
    <tripinfo id="veh_587" depart="64.00" departLane="edge_W_in_0" departPos="5.10" departSpeed="0.00" departDelay="2.00" arrival="97.00" arrivalLane="edge_E_out_1" arrivalPos="189.60" arrivalSpeed="12.80" duration="33.00" routeLength="394.90" waitingTime="0.00" waitingCount="0" stopTime="0.00" timeLoss="4.49" rerouteNo="0" devices="tripinfo_veh_587 routing_veh_587" vType="CAR" speedFactor="1.05" vaporized=""/>
    <tripinfo id="veh_142" depart="61.00" departLane="edge_W_in_0" departPos="5.10" departSpeed="0.00" departDelay="0.00" arrival="99.00" arrivalLane="edge_S_out_0" arrivalPos="189.60" arrivalSpeed="11.43" duration="38.00" routeLength="383.13" waitingTime="0.00" waitingCount="0" stopTime="0.00" timeLoss="5.70" rerouteNo="0" devices="tripinfo_veh_142 routing_veh_142" vType="CAR" speedFactor="0.87" vaporized=""/>
    <tripinfo id="veh_722" depart="70.00" departLane="edge_S_in_0" departPos="5.10" departSpeed="0.00" departDelay="0.00" arrival="108.00" arrivalLane="edge_N_out_1" arrivalPos="189.60" arrivalSpeed="12.91" duration="38.00" routeLength="394.90" waitingTime="0.00" waitingCount="0" stopTime="0.00" timeLoss="9.29" rerouteNo="0" devices="tripinfo_veh_722 routing_veh_722" vType="CAR" speedFactor="1.08" vaporized=""/>
    <tripinfo id="veh_585" depart="26.00" departLane="edge_S_in_0" departPos="12.10" departSpeed="0.00" departDelay="2.00" arrival="112.00" arrivalLane="edge_E_out_0" arrivalPos="189.60" arrivalSpeed="10.43" duration="86.00" routeLength="376.13" waitingTime="40.00" waitingCount="1" stopTime="0.00" timeLoss="51.47" rerouteNo="0" devices="tripinfo_veh_585 routing_veh_585" vType="TRUCK" speedFactor="1.07" vaporized=""/>
    <tripinfo id="veh_341" depart="40.00" departLane="edge_N_in_0" departPos="5.10" departSpeed="0.00" departDelay="0.00" arrival="112.00" arrivalLane="edge_E_out_1" arrivalPos="189.60" arrivalSpeed="13.23" duration="72.00" routeLength="393.45" waitingTime="31.00" waitingCount="2" stopTime="0.00" timeLoss="42.51" rerouteNo="0" devices="tripinfo_veh_341 routing_veh_341" vType="CAR" speedFactor="1.16" vaporized=""/>
    <tripinfo id="veh_284" depart="52.00" departLane="edge_N_in_0" departPos="12.10" departSpeed="0.00" departDelay="0.00" arrival="112.00" arrivalLane="edge_W_out_0" arrivalPos="189.60" arrivalSpeed="10.61" duration="60.00" routeLength="376.13" waitingTime="12.00" waitingCount="1" stopTime="0.00" timeLoss="25.39" rerouteNo="0" devices="tripinfo_veh_284 routing_veh_284" vType="TRUCK" speedFactor="1.12" vaporized=""/>
    <tripinfo id="veh_395" depart="75.00" departLane="edge_S_in_0" departPos="5.10" departSpeed="0.00" departDelay="0.00" arrival="112.00" arrivalLane="edge_W_out_1" arrivalPos="189.60" arrivalSpeed="12.49" duration="37.00" routeLength="393.45" waitingTime="0.00" waitingCount="0" stopTime="0.00" timeLoss="6.12" rerouteNo="0" devices="tripinfo_veh_395 routing_veh_395" vType="CAR" speedFactor="0.94" vaporized=""/>
    <tripinfo id="veh_273" depart="63.00" departLane="edge_N_in_0" departPos="2.60" departSpeed="0.00" departDelay="0.00" arrival="114.00" arrivalLane="edge_W_out_0" arrivalPos="189.60" arrivalSpeed="15.42" duration="51.00" routeLength="385.63" waitingTime="9.00" waitingCount="1" stopTime="0.00" timeLoss="25.26" rerouteNo="0" devices="tripinfo_veh_273 routing_veh_273" vType="MOTORCYCLE" speedFactor="1.12" vaporized=""/>
    <tripinfo id="veh_503" depart="70.00" departLane="edge_N_in_0" departPos="5.10" departSpeed="0.00" departDelay="0.00" arrival="116.00" arrivalLane="edge_W_out_0" arrivalPos="189.60" arrivalSpeed="12.17" duration="46.00" routeLength="383.13" waitingTime="3.00" waitingCount="1" stopTime="0.00" timeLoss="16.11" rerouteNo="0" devices="tripinfo_veh_503 routing_veh_503" vType="CAR" speedFactor="0.97" vaporized=""/>
    <tripinfo id="veh_601" depart="90.00" departLane="edge_S_in_0" departPos="2.60" departSpeed="0.00" departDelay="0.00" arrival="119.00" arrivalLane="edge_N_out_0" arrivalPos="189.60" arrivalSpeed="15.45" duration="29.00" routeLength="397.40" waitingTime="0.00" waitingCount="0" stopTime="0.00" timeLoss="3.64" rerouteNo="0" devices="tripinfo_veh_601 routing_veh_601" vType="MOTORCYCLE" speedFactor="1.15" vaporized=""/>
    <tripinfo id="veh_666" depart="80.00" departLane="edge_N_in_0" departPos="12.10" departSpeed="0.00" departDelay="0.00" arrival="121.00" arrivalLane="edge_S_out_0" arrivalPos="189.60" arrivalSpeed="10.57" duration="41.00" routeLength="387.90" waitingTime="0.00" waitingCount="0" stopTime="0.00" timeLoss="5.95" rerouteNo="0" devices="tripinfo_veh_666 routing_veh_666" vType="TRUCK" speedFactor="0.91" vaporized=""/>
    <tripinfo id="veh_758" depart="85.00" departLane="edge_S_in_0" departPos="5.10" departSpeed="0.00" departDelay="0.00" arrival="122.00" arrivalLane="edge_W_out_1" arrivalPos="189.60" arrivalSpeed="13.69" duration="37.00" routeLength="393.45" waitingTime="0.00" waitingCount="0" stopTime="0.00" timeLoss="7.78" rerouteNo="0" devices="tripinfo_veh_758 routing_veh_758" vType="CAR" speedFactor="1.01" vaporized=""/>
    <tripinfo id="veh_442" depart="96.00" departLane="edge_S_in_0" departPos="5.10" departSpeed="0.00" departDelay="0.00" arrival="130.00" arrivalLane="edge_W_out_1" arrivalPos="189.60" arrivalSpeed="13.31" duration="34.00" routeLength="393.45" waitingTime="0.00" waitingCount="0" stopTime="0.00" timeLoss="4.79" rerouteNo="0" devices="tripinfo_veh_442 routing_veh_442" vType="CAR" speedFactor="1.06" vaporized=""/>
    <tripinfo id="veh_45" depart="100.00" departLane="edge_N_in_0" departPos="12.10" departSpeed="0.00" departDelay="0.00" arrival="142.00" arrivalLane="edge_W_out_0" arrivalPos="189.60" arrivalSpeed="11.08" duration="42.00" routeLength="376.13" waitingTime="0.00" waitingCount="0" stopTime="0.00" timeLoss="6.92" rerouteNo="0" devices="tripinfo_veh_45 routing_veh_45" vType="TRUCK" speedFactor="1.03" vaporized=""/>
    <tripinfo id="veh_88" depart="104.00" departLane="edge_N_in_0" departPos="5.10" departSpeed="0.00" departDelay="2.00" arrival="146.00" arrivalLane="edge_W_out_0" arrivalPos="189.60" arrivalSpeed="11.20" duration="42.00" routeLength="383.13" waitingTime="0.00" waitingCount="0" stopTime="0.00" timeLoss="8.31" rerouteNo="0" devices="tripinfo_veh_88 routing_veh_88" vType="CAR" speedFactor="0.86" vaporized=""/>
    <tripinfo id="veh_236" depart="87.00" departLane="edge_W_in_0" departPos="2.60" departSpeed="0.00" departDelay="0.00" arrival="150.00" arrivalLane="edge_S_out_0" arrivalPos="189.60" arrivalSpeed="14.29" duration="63.00" routeLength="385.63" waitingTime="30.00" waitingCount="1" stopTime="0.00" timeLoss="38.38" rerouteNo="0" devices="tripinfo_veh_236 routing_veh_236" vType="MOTORCYCLE" speedFactor="1.15" vaporized=""/>
    <tripinfo id="veh_348" depart="75.00" departLane="edge_W_in_0" departPos="2.60" departSpeed="0.00" departDelay="0.00" arrival="154.00" arrivalLane="edge_N_out_1" arrivalPos="189.60" arrivalSpeed="13.97" duration="79.00" routeLength="395.95" waitingTime="42.00" waitingCount="2" stopTime="0.00" timeLoss="51.43" rerouteNo="0" devices="tripinfo_veh_348 routing_veh_348" vType="MOTORCYCLE" speedFactor="1.08" vaporized=""/>
    <tripinfo id="veh_583" depart="97.00" departLane="edge_W_in_0" departPos="5.10" departSpeed="0.00" departDelay="0.00" arrival="155.00" arrivalLane="edge_E_out_0" arrivalPos="189.60" arrivalSpeed="12.47" duration="58.00" routeLength="394.90" waitingTime="20.00" waitingCount="1" stopTime="0.00" timeLoss="29.17" rerouteNo="0" devices="tripinfo_veh_583 routing_veh_583" vType="CAR" speedFactor="1.07" vaporized=""/>
    <tripinfo id="veh_46" depart="76.00" departLane="edge_E_in_0" departPos="12.10" departSpeed="0.00" departDelay="2.00" arrival="157.00" arrivalLane="edge_N_out_0" arrivalPos="189.60" arrivalSpeed="11.04" duration="81.00" routeLength="376.13" waitingTime="34.00" waitingCount="1" stopTime="0.00" timeLoss="46.70" rerouteNo="0" devices="tripinfo_veh_46 routing_veh_46" vType="TRUCK" speedFactor="0.95" vaporized=""/>
    <tripinfo id="veh_270" depart="79.00" departLane="edge_E_in_0" departPos="2.60" departSpeed="0.00" departDelay="5.00" arrival="160.00" arrivalLane="edge_N_out_0" arrivalPos="189.60" arrivalSpeed="13.16" duration="81.00" routeLength="385.63" waitingTime="34.00" waitingCount="1" stopTime="0.00" timeLoss="52.07" rerouteNo="0" devices="tripinfo_veh_270 routing_veh_270" vType="MOTORCYCLE" speedFactor="1.00" vaporized=""/>
    <tripinfo id="veh_693" depart="82.00" departLane="edge_E_in_0" departPos="2.60" departSpeed="0.00" departDelay="7.00" arrival="161.00" arrivalLane="edge_N_out_0" arrivalPos="189.60" arrivalSpeed="13.34" duration="79.00" routeLength="385.63" waitingTime="33.00" waitingCount="1" stopTime="0.00" timeLoss="52.55" rerouteNo="0" devices="tripinfo_veh_693 routing_veh_693" vType="MOTORCYCLE" speedFactor="1.08" vaporized=""/>
    <tripinfo id="veh_436" depart="101.00" departLane="edge_W_in_0" departPos="12.10" departSpeed="0.00" departDelay="1.00" arrival="161.00" arrivalLane="edge_E_out_1" arrivalPos="189.60" arrivalSpeed="11.00" duration="60.00" routeLength="387.90" waitingTime="12.00" waitingCount="1" stopTime="0.00" timeLoss="24.36" rerouteNo="0" devices="tripinfo_veh_436 routing_veh_436" vType="TRUCK" speedFactor="0.96" vaporized=""/>
    <tripinfo id="veh_767" depart="114.00" departLane="edge_W_in_0" departPos="5.10" departSpeed="0.00" departDelay="1.00" arrival="161.00" arrivalLane="edge_N_out_1" arrivalPos="189.60" arrivalSpeed="13.44" duration="47.00" routeLength="393.45" waitingTime="5.00" waitingCount="1" stopTime="0.00" timeLoss="16.84" rerouteNo="0" devices="tripinfo_veh_767 routing_veh_767" vType="CAR" speedFactor="0.99" vaporized=""/>
    <tripinfo id="veh_484" depart="110.00" departLane="edge_W_in_0" departPos="12.10" departSpeed="0.00" departDelay="0.00" arrival="162.00" arrivalLane="edge_E_out_0" arrivalPos="189.60" arrivalSpeed="10.69" duration="52.00" routeLength="387.90" waitingTime="3.00" waitingCount="1" stopTime="0.00" timeLoss="16.15" rerouteNo="0" devices="tripinfo_veh_484 routing_veh_484" vType="TRUCK" speedFactor="0.97" vaporized=""/>
    <tripinfo id="veh_529" depart="72.00" departLane="edge_E_in_0" departPos="5.10" departSpeed="0.00" departDelay="0.00" arrival="163.00" arrivalLane="edge_S_out_1" arrivalPos="189.60" arrivalSpeed="12.41" duration="91.00" routeLength="393.45" waitingTime="46.00" waitingCount="2" stopTime="0.00" timeLoss="59.96" rerouteNo="0" devices="tripinfo_veh_529 routing_veh_529" vType="CAR" speedFactor="0.94" vaporized=""/>
    <tripinfo id="veh_4" depart="130.00" departLane="edge_W_in_0" departPos="2.60" departSpeed="0.00" departDelay="2.00" arrival="164.00" arrivalLane="edge_S_out_0" arrivalPos="189.60" arrivalSpeed="13.98" duration="34.00" routeLength="385.63" waitingTime="0.00" waitingCount="0" stopTime="0.00" timeLoss="5.75" rerouteNo="0" devices="tripinfo_veh_4 routing_veh_4" vType="MOTORCYCLE" speedFactor="1.02" vaporized=""/>
    <tripinfo id="veh_435" depart="115.00" departLane="edge_E_in_0" departPos="5.10" departSpeed="0.00" departDelay="2.00" arrival="165.00" arrivalLane="edge_W_out_1" arrivalPos="189.60" arrivalSpeed="12.68" duration="50.00" routeLength="394.90" waitingTime="8.00" waitingCount="3" stopTime="0.00" timeLoss="21.30" rerouteNo="0" devices="tripinfo_veh_435 routing_veh_435" vType="CAR" speedFactor="1.12" vaporized=""/>
    <tripinfo id="veh_594" depart="104.00" departLane="edge_E_in_0" departPos="5.10" departSpeed="0.00" departDelay="0.00" arrival="166.00" arrivalLane="edge_W_out_0" arrivalPos="189.60" arrivalSpeed="13.20" duration="62.00" routeLength="394.90" waitingTime="19.00" waitingCount="2" stopTime="0.00" timeLoss="31.41" rerouteNo="0" devices="tripinfo_veh_594 routing_veh_594" vType="CAR" speedFactor="0.95" vaporized=""/>
    <tripinfo id="veh_195" depart="113.00" departLane="edge_E_in_0" departPos="2.60" departSpeed="0.00" departDelay="0.00" arrival="166.00" arrivalLane="edge_N_out_0" arrivalPos="189.60" arrivalSpeed="10.46" duration="53.00" routeLength="385.63" waitingTime="4.00" waitingCount="1" stopTime="0.00" timeLoss="17.89" rerouteNo="0" devices="tripinfo_veh_195 routing_veh_195" vType="MOTORCYCLE" speedFactor="0.83" vaporized=""/>
    <tripinfo id="veh_734" depart="122.00" departLane="edge_E_in_0" departPos="5.10" departSpeed="0.00" departDelay="0.00" arrival="168.00" arrivalLane="edge_S_out_1" arrivalPos="189.60" arrivalSpeed="13.44" duration="46.00" routeLength="393.45" waitingTime="4.00" waitingCount="1" stopTime="0.00" timeLoss="16.77" rerouteNo="0" devices="tripinfo_veh_734 routing_veh_734" vType="CAR" speedFactor="1.03" vaporized=""/>
    <tripinfo id="veh_449" depart="126.00" departLane="edge_W_in_0" departPos="2.60" departSpeed="0.00" departDelay="0.00" arrival="170.00" arrivalLane="edge_N_out_1" arrivalPos="189.60" arrivalSpeed="11.12" duration="44.00" routeLength="395.95" waitingTime="3.00" waitingCount="1" stopTime="0.00" timeLoss="11.90" rerouteNo="0" devices="tripinfo_veh_449 routing_veh_449" vType="MOTORCYCLE" speedFactor="0.92" vaporized=""/>
    <tripinfo id="veh_97" depart="136.00" departLane="edge_E_in_0" departPos="5.10" departSpeed="0.00" departDelay="0.00" arrival="171.00" arrivalLane="edge_S_out_1" arrivalPos="189.60" arrivalSpeed="13.75" duration="35.00" routeLength="393.45" waitingTime="0.00" waitingCount="0" stopTime="0.00" timeLoss="5.73" rerouteNo="0" devices="tripinfo_veh_97 routing_veh_97" vType="CAR" speedFactor="1.05" vaporized=""/>
    <tripinfo id="veh_93" depart="139.00" departLane="edge_W_in_0" departPos="5.10" departSpeed="0.00" departDelay="0.00" arrival="173.00" arrivalLane="edge_S_out_0" arrivalPos="189.60" arrivalSpeed="13.21" duration="34.00" routeLength="383.13" waitingTime="0.00" waitingCount="0" stopTime="0.00" timeLoss="5.50" rerouteNo="0" devices="tripinfo_veh_93 routing_veh_93" vType="CAR" speedFactor="1.10" vaporized=""/>
    <tripinfo id="veh_664" depart="141.00" departLane="edge_E_in_0" departPos="5.10" departSpeed="0.00" departDelay="0.00" arrival="174.00" arrivalLane="edge_W_out_0" arrivalPos="189.60" arrivalSpeed="12.75" duration="33.00" routeLength="394.90" waitingTime="0.00" waitingCount="0" stopTime="0.00" timeLoss="4.24" rerouteNo="0" devices="tripinfo_veh_664 routing_veh_664" vType="CAR" speedFactor="1.14" vaporized=""/>
    <tripinfo id="veh_318" depart="142.00" departLane="edge_W_in_0" departPos="5.10" departSpeed="0.00" departDelay="3.00" arrival="177.00" arrivalLane="edge_S_out_0" arrivalPos="189.60" arrivalSpeed="13.19" duration="35.00" routeLength="383.13" waitingTime="0.00" waitingCount="0" stopTime="0.00" timeLoss="6.39" rerouteNo="0" devices="tripinfo_veh_318 routing_veh_318" vType="CAR" speedFactor="1.07" vaporized=""/>
    <tripinfo id="veh_580" depart="128.00" departLane="edge_W_in_0" departPos="5.10" departSpeed="0.00" departDelay="1.00" arrival="178.00" arrivalLane="edge_N_out_1" arrivalPos="189.60" arrivalSpeed="13.50" duration="50.00" routeLength="393.45" waitingTime="6.00" waitingCount="2" stopTime="0.00" timeLoss="20.16" rerouteNo="0" devices="tripinfo_veh_580 routing_veh_580" vType="CAR" speedFactor="1.04" vaporized=""/>
    <tripinfo id="veh_292" depart="149.00" departLane="edge_E_in_0" departPos="5.10" departSpeed="0.00" departDelay="1.00" arrival="182.00" arrivalLane="edge_W_out_1" arrivalPos="189.60" arrivalSpeed="13.43" duration="33.00" routeLength="394.90" waitingTime="0.00" waitingCount="0" stopTime="0.00" timeLoss="4.26" rerouteNo="0" devices="tripinfo_veh_292 routing_veh_292" vType="CAR" speedFactor="1.21" vaporized=""/>
    <tripinfo id="veh_18" depart="149.00" departLane="edge_W_in_0" departPos="5.10" departSpeed="0.00" departDelay="0.00" arrival="185.00" arrivalLane="edge_S_out_0" arrivalPos="189.60" arrivalSpeed="12.37" duration="36.00" routeLength="383.13" waitingTime="0.00" waitingCount="0" stopTime="0.00" timeLoss="6.16" rerouteNo="0" devices="tripinfo_veh_18 routing_veh_18" vType="CAR" speedFactor="0.97" vaporized=""/>
    <tripinfo id="veh_667" depart="145.00" departLane="edge_E_in_0" departPos="12.10" departSpeed="0.00" departDelay="3.00" arrival="187.00" arrivalLane="edge_N_out_0" arrivalPos="189.60" arrivalSpeed="10.64" duration="42.00" routeLength="376.13" waitingTime="0.00" waitingCount="0" stopTime="0.00" timeLoss="7.17" rerouteNo="0" devices="tripinfo_veh_667 routing_veh_667" vType="TRUCK" speedFactor="0.94" vaporized=""/>
    <tripinfo id="veh_272" depart="152.00" departLane="edge_E_in_0" departPos="5.10" departSpeed="0.00" departDelay="3.00" arrival="187.00" arrivalLane="edge_W_out_1" arrivalPos="189.60" arrivalSpeed="12.62" duration="35.00" routeLength="394.90" waitingTime="0.00" waitingCount="0" stopTime="0.00" timeLoss="4.29" rerouteNo="0" devices="tripinfo_veh_272 routing_veh_272" vType="CAR" speedFactor="0.94" vaporized=""/>
    <tripinfo id="veh_415" depart="160.00" departLane="edge_E_in_0" departPos="2.60" departSpeed="0.00" departDelay="0.00" arrival="191.00" arrivalLane="edge_S_out_1" arrivalPos="189.60" arrivalSpeed="15.64" duration="31.00" routeLength="395.95" waitingTime="0.00" waitingCount="0" stopTime="0.00" timeLoss="5.43" rerouteNo="0" devices="tripinfo_veh_415 routing_veh_415" vType="MOTORCYCLE" speedFactor="1.16" vaporized=""/>
    <tripinfo id="veh_751" depart="134.00" departLane="edge_W_in_0" departPos="12.10" departSpeed="0.00" departDelay="1.00" arrival="196.00" arrivalLane="edge_N_out_0" arrivalPos="189.60" arrivalSpeed="10.81" duration="62.00" routeLength="386.45" waitingTime="9.00" waitingCount="2" stopTime="0.00" timeLoss="26.11" rerouteNo="0" devices="tripinfo_veh_751 routing_veh_751" vType="TRUCK" speedFactor="0.95" vaporized=""/>
    <tripinfo id="veh_149" depart="118.00" departLane="edge_S_in_0" departPos="5.10" departSpeed="0.00" departDelay="0.00" arrival="201.00" arrivalLane="edge_W_out_1" arrivalPos="189.60" arrivalSpeed="11.64" duration="83.00" routeLength="393.45" waitingTime="40.00" waitingCount="1" stopTime="0.00" timeLoss="48.20" rerouteNo="0" devices="tripinfo_veh_149 routing_veh_149" vType="CAR" speedFactor="0.85" vaporized=""/>
    <tripinfo id="veh_187" depart="156.00" departLane="edge_S_in_0" departPos="5.10" departSpeed="0.00" departDelay="0.00" arrival="201.00" arrivalLane="edge_N_out_0" arrivalPos="189.60" arrivalSpeed="11.66" duration="45.00" routeLength="394.90" waitingTime="3.00" waitingCount="1" stopTime="0.00" timeLoss="11.85" rerouteNo="0" devices="tripinfo_veh_187 routing_veh_187" vType="CAR" speedFactor="0.88" vaporized=""/>
    <tripinfo id="veh_109" depart="163.00" departLane="edge_S_in_0" departPos="5.10" departSpeed="0.00" departDelay="0.00" arrival="202.00" arrivalLane="edge_W_out_1" arrivalPos="189.60" arrivalSpeed="12.37" duration="39.00" routeLength="393.45" waitingTime="0.00" waitingCount="0" stopTime="0.00" timeLoss="10.18" rerouteNo="0" devices="tripinfo_veh_109 routing_veh_109" vType="CAR" speedFactor="1.08" vaporized=""/>
    <tripinfo id="veh_676" depart="128.00" departLane="edge_N_in_0" departPos="12.10" departSpeed="0.00" departDelay="0.00" arrival="208.00" arrivalLane="edge_E_out_0" arrivalPos="189.60" arrivalSpeed="10.92" duration="80.00" routeLength="386.45" waitingTime="31.00" waitingCount="2" stopTime="0.00" timeLoss="44.78" rerouteNo="0" devices="tripinfo_veh_676 routing_veh_676" vType="TRUCK" speedFactor="1.07" vaporized=""/>
    <tripinfo id="veh_621" depart="174.00" departLane="edge_N_in_0" departPos="5.10" departSpeed="0.00" departDelay="0.00" arrival="210.00" arrivalLane="edge_E_out_1" arrivalPos="189.60" arrivalSpeed="13.39" duration="36.00" routeLength="393.45" waitingTime="0.00" waitingCount="0" stopTime="0.00" timeLoss="6.94" rerouteNo="0" devices="tripinfo_veh_621 routing_veh_621" vType="CAR" speedFactor="1.09" vaporized=""/>
    <tripinfo id="veh_558" depart="177.00" departLane="edge_S_in_0" departPos="5.10" departSpeed="0.00" departDelay="0.00" arrival="212.00" arrivalLane="edge_E_out_0" arrivalPos="189.60" arrivalSpeed="13.14" duration="35.00" routeLength="383.13" waitingTime="0.00" waitingCount="0" stopTime="0.00" timeLoss="6.09" rerouteNo="0" devices="tripinfo_veh_558 routing_veh_558" vType="CAR" speedFactor="1.04" vaporized=""/>
    <tripinfo id="veh_507" depart="185.00" departLane="edge_N_in_0" departPos="5.10" departSpeed="0.00" departDelay="0.00" arrival="219.00" arrivalLane="edge_W_out_0" arrivalPos="189.60" arrivalSpeed="13.86" duration="34.00" routeLength="383.13" waitingTime="0.00" waitingCount="0" stopTime="0.00" timeLoss="5.65" rerouteNo="0" devices="tripinfo_veh_507 routing_veh_507" vType="CAR" speedFactor="1.08" vaporized=""/>
    <tripinfo id="veh_528" depart="187.00" departLane="edge_N_in_0" departPos="2.60" departSpeed="0.00" departDelay="0.00" arrival="220.00" arrivalLane="edge_S_out_1" arrivalPos="189.60" arrivalSpeed="14.03" duration="33.00" routeLength="397.40" waitingTime="0.00" waitingCount="0" stopTime="0.00" timeLoss="4.01" rerouteNo="0" devices="tripinfo_veh_528 routing_veh_528" vType="MOTORCYCLE" speedFactor="1.02" vaporized=""/>