<?xml version="1.0" encoding="UTF-8"?>

<!-- generated on 2025-05-04 22:34:52 by Eclipse SUMO GUI Version 1.22.0
<sumoConfiguration xmlns:xsi="http://www.w3.org/2001/XMLSchema-instance" xsi:noNamespaceSchemaLocation="http://sumo.dlr.de/xsd/sumoConfiguration.xsd">

    <input>
        <net-file value="my_intersection.net.xml"/>
        <route-files value="random_traffic.rou.xml"/>
        <additional-files value="tls_program.add.xml"/>
    </input>

    <output>
        <summary-output value="outputs\final_drl_lstm_summary.xml"/>
        <tripinfo-output value="outputs\final_drl_lstm_tripinfo.xml"/>
    </output>

    <time>
        <begin value="0"/>
        <end value="1800"/>
    </time>

    <processing>
        <ignore-route-errors value="true"/>
        <time-to-teleport value="-1"/>
        <waiting-time-memory value="1000"/>
    </processing>

    <report>
        <no-warnings value="true"/>
        <duration-log.disable value="true"/>
        <no-step-log value="true"/>
    </report>

    <traci_server>
        <remote-port value="8843"/>
    </traci_server>

    <random_number>
        <random value="true"/>
        <seed value="43"/>
    </random_number>

    <gui_only>
        <start value="true"/>
        <delay value="150"/>
        <tracker-interval value="0.1"/>
    </gui_only>

</sumoConfiguration>
-->

<tripinfos xmlns:xsi="http://www.w3.org/2001/XMLSchema-instance" xsi:noNamespaceSchemaLocation="http://sumo.dlr.de/xsd/tripinfo_file.xsd">
    <tripinfo id="veh_352" depart="5.00" departLane="edge_E_in_0" departPos="5.10" departSpeed="0.00" departDelay="0.00" arrival="39.00" arrivalLane="edge_W_out_0" arrivalPos="189.60" arrivalSpeed="13.27" duration="34.00" routeLength="394.90" waitingTime="0.00" waitingCount="0" stopTime="0.00" timeLoss="5.56" rerouteNo="0" devices="tripinfo_veh_352 routing_veh_352" vType="CAR" speedFactor="1.01" vaporized=""/>
    <tripinfo id="veh_542" depart="11.00" departLane="edge_E_in_0" departPos="5.10" departSpeed="0.00" departDelay="0.00" arrival="47.00" arrivalLane="edge_S_out_1" arrivalPos="189.60" arrivalSpeed="12.82" duration="36.00" routeLength="393.45" waitingTime="0.00" waitingCount="0" stopTime="0.00" timeLoss="6.29" rerouteNo="0" devices="tripinfo_veh_542 routing_veh_542" vType="CAR" speedFactor="1.10" vaporized=""/>
    <tripinfo id="veh_31" depart="8.00" departLane="edge_W_in_0" departPos="12.10" departSpeed="0.00" departDelay="0.00" arrival="51.00" arrivalLane="edge_S_out_0" arrivalPos="189.60" arrivalSpeed="10.63" duration="43.00" routeLength="376.13" waitingTime="0.00" waitingCount="0" stopTime="0.00" timeLoss="8.43" rerouteNo="0" devices="tripinfo_veh_31 routing_veh_31" vType="TRUCK" speedFactor="0.92" vaporized=""/>
    <tripinfo id="veh_243" depart="25.00" departLane="edge_E_in_0" departPos="5.10" departSpeed="0.00" departDelay="0.00" arrival="60.00" arrivalLane="edge_S_out_1" arrivalPos="189.60" arrivalSpeed="13.51" duration="35.00" routeLength="393.45" waitingTime="0.00" waitingCount="0" stopTime="0.00" timeLoss="6.10" rerouteNo="0" devices="tripinfo_veh_243 routing_veh_243" vType="CAR" speedFactor="1.06" vaporized=""/>
    <tripinfo id="veh_264" depart="28.00" departLane="edge_W_in_0" departPos="5.10" departSpeed="0.00" departDelay="2.00" arrival="64.00" arrivalLane="edge_S_out_0" arrivalPos="189.60" arrivalSpeed="13.52" duration="36.00" routeLength="383.13" waitingTime="0.00" waitingCount="0" stopTime="0.00" timeLoss="6.11" rerouteNo="0" devices="tripinfo_veh_264 routing_veh_264" vType="CAR" speedFactor="0.98" vaporized=""/>
    <tripinfo id="veh_720" depart="25.00" departLane="edge_W_in_0" departPos="5.10" departSpeed="0.00" departDelay="0.00" arrival="65.00" arrivalLane="edge_N_out_1" arrivalPos="189.60" arrivalSpeed="11.96" duration="40.00" routeLength="393.45" waitingTime="0.00" waitingCount="0" stopTime="0.00" timeLoss="5.51" rerouteNo="0" devices="tripinfo_veh_720 routing_veh_720" vType="CAR" speedFactor="0.86" vaporized=""/>
    <tripinfo id="veh_510" depart="32.00" departLane="edge_E_in_0" departPos="5.10" departSpeed="0.00" departDelay="0.00" arrival="67.00" arrivalLane="edge_N_out_0" arrivalPos="189.60" arrivalSpeed="13.49" duration="35.00" routeLength="383.13" waitingTime="0.00" waitingCount="0" stopTime="0.00" timeLoss="6.08" rerouteNo="0" devices="tripinfo_veh_510 routing_veh_510" vType="CAR" speedFactor="0.99" vaporized=""/>
    <tripinfo id="veh_305" depart="41.00" departLane="edge_W_in_0" departPos="5.10" departSpeed="0.00" departDelay="0.00" arrival="77.00" arrivalLane="edge_S_out_0" arrivalPos="189.60" arrivalSpeed="12.38" duration="36.00" routeLength="383.13" waitingTime="0.00" waitingCount="0" stopTime="0.00" timeLoss="4.65" rerouteNo="0" devices="tripinfo_veh_305 routing_veh_305" vType="CAR" speedFactor="0.91" vaporized=""/>
    <tripinfo id="veh_147" depart="39.00" departLane="edge_E_in_0" departPos="12.10" departSpeed="0.00" departDelay="0.00" arrival="81.00" arrivalLane="edge_N_out_0" arrivalPos="189.60" arrivalSpeed="10.55" duration="42.00" routeLength="376.13" waitingTime="0.00" waitingCount="0" stopTime="0.00" timeLoss="7.04" rerouteNo="0" devices="tripinfo_veh_147 routing_veh_147" vType="TRUCK" speedFactor="1.00" vaporized=""/>
    <tripinfo id="veh_234" depart="6.00" departLane="edge_N_in_0" departPos="2.60" departSpeed="0.00" departDelay="0.00" arrival="84.00" arrivalLane="edge_W_out_0" arrivalPos="189.60" arrivalSpeed="14.49" duration="78.00" routeLength="385.63" waitingTime="43.00" waitingCount="1" stopTime="0.00" timeLoss="51.86" rerouteNo="0" devices="tripinfo_veh_234 routing_veh_234" vType="MOTORCYCLE" speedFactor="1.10" vaporized=""/>
    <tripinfo id="veh_547" depart="19.00" departLane="edge_S_in_0" departPos="5.10" departSpeed="0.00" departDelay="0.00" arrival="86.00" arrivalLane="edge_E_out_0" arrivalPos="189.60" arrivalSpeed="13.28" duration="67.00" routeLength="383.13" waitingTime="25.00" waitingCount="2" stopTime="0.00" timeLoss="38.03" rerouteNo="0" devices="tripinfo_veh_547 routing_veh_547" vType="CAR" speedFactor="1.17" vaporized=""/>
    <tripinfo id="veh_126" depart="13.00" departLane="edge_S_in_0" departPos="5.10" departSpeed="0.00" departDelay="0.00" arrival="87.00" arrivalLane="edge_N_out_1" arrivalPos="189.60" arrivalSpeed="13.14" duration="74.00" routeLength="394.90" waitingTime="35.00" waitingCount="1" stopTime="0.00" timeLoss="44.91" rerouteNo="0" devices="tripinfo_veh_126 routing_veh_126" vType="CAR" speedFactor="1.04" vaporized=""/>
    <tripinfo id="veh_505" depart="23.00" departLane="edge_S_in_0" departPos="2.60" departSpeed="0.00" departDelay="0.00" arrival="88.00" arrivalLane="edge_E_out_0" arrivalPos="189.60" arrivalSpeed="14.13" duration="65.00" routeLength="385.63" waitingTime="23.00" waitingCount="1" stopTime="0.00" timeLoss="36.52" rerouteNo="0" devices="tripinfo_veh_505 routing_veh_505" vType="MOTORCYCLE" speedFactor="1.04" vaporized=""/>
    <tripinfo id="veh_341" depart="40.00" departLane="edge_N_in_0" departPos="5.10" departSpeed="0.00" departDelay="0.00" arrival="91.00" arrivalLane="edge_E_out_1" arrivalPos="189.60" arrivalSpeed="12.82" duration="51.00" routeLength="393.45" waitingTime="10.00" waitingCount="2" stopTime="0.00" timeLoss="21.70" rerouteNo="0" devices="tripinfo_veh_341 routing_veh_341" vType="CAR" speedFactor="1.16" vaporized=""/>
    <tripinfo id="veh_585" depart="26.00" departLane="edge_S_in_0" departPos="12.10" departSpeed="0.00" departDelay="2.00" arrival="94.00" arrivalLane="edge_E_out_0" arrivalPos="189.60" arrivalSpeed="10.93" duration="68.00" routeLength="376.13" waitingTime="17.00" waitingCount="1" stopTime="0.00" timeLoss="32.58" rerouteNo="0" devices="tripinfo_veh_585 routing_veh_585" vType="TRUCK" speedFactor="0.96" vaporized=""/>
    <tripinfo id="veh_284" depart="52.00" departLane="edge_N_in_0" departPos="12.10" departSpeed="0.00" departDelay="0.00" arrival="94.00" arrivalLane="edge_W_out_0" arrivalPos="189.60" arrivalSpeed="10.77" duration="42.00" routeLength="376.13" waitingTime="0.00" waitingCount="0" stopTime="0.00" timeLoss="6.84" rerouteNo="0" devices="tripinfo_veh_284 routing_veh_284" vType="TRUCK" speedFactor="0.97" vaporized=""/>
    <tripinfo id="veh_273" depart="63.00" departLane="edge_N_in_0" departPos="2.60" departSpeed="0.00" departDelay="0.00" arrival="96.00" arrivalLane="edge_W_out_0" arrivalPos="189.60" arrivalSpeed="14.38" duration="33.00" routeLength="385.63" waitingTime="0.00" waitingCount="0" stopTime="0.00" timeLoss="6.10" rerouteNo="0" devices="tripinfo_veh_273 routing_veh_273" vType="MOTORCYCLE" speedFactor="1.08" vaporized=""/>
    <tripinfo id="veh_722" depart="70.00" departLane="edge_S_in_0" departPos="5.10" departSpeed="0.00" departDelay="0.00" arrival="105.00" arrivalLane="edge_N_out_0" arrivalPos="189.60" arrivalSpeed="13.55" duration="35.00" routeLength="394.90" waitingTime="0.00" waitingCount="0" stopTime="0.00" timeLoss="5.80" rerouteNo="0" devices="tripinfo_veh_722 routing_veh_722" vType="CAR" speedFactor="1.13" vaporized=""/>
    <tripinfo id="veh_503" depart="70.00" departLane="edge_N_in_0" departPos="5.10" departSpeed="0.00" departDelay="0.00" arrival="109.00" arrivalLane="edge_W_out_0" arrivalPos="189.60" arrivalSpeed="10.70" duration="39.00" routeLength="383.13" waitingTime="0.00" waitingCount="0" stopTime="0.00" timeLoss="5.60" rerouteNo="0" devices="tripinfo_veh_503 routing_veh_503" vType="CAR" speedFactor="0.85" vaporized=""/>
    <tripinfo id="veh_395" depart="75.00" departLane="edge_S_in_0" departPos="5.10" departSpeed="0.00" departDelay="0.00" arrival="111.00" arrivalLane="edge_W_out_1" arrivalPos="189.60" arrivalSpeed="12.82" duration="36.00" routeLength="393.45" waitingTime="0.00" waitingCount="0" stopTime="0.00" timeLoss="6.28" rerouteNo="0" devices="tripinfo_veh_395 routing_veh_395" vType="CAR" speedFactor="1.02" vaporized=""/>
    <tripinfo id="veh_200" depart="52.00" departLane="edge_E_in_0" departPos="5.10" departSpeed="0.00" departDelay="0.00" arrival="121.00" arrivalLane="edge_W_out_0" arrivalPos="189.60" arrivalSpeed="12.72" duration="69.00" routeLength="394.90" waitingTime="32.00" waitingCount="1" stopTime="0.00" timeLoss="40.54" rerouteNo="0" devices="tripinfo_veh_200 routing_veh_200" vType="CAR" speedFactor="1.05" vaporized=""/>
    <tripinfo id="veh_632" depart="49.00" departLane="edge_W_in_0" departPos="2.60" departSpeed="0.00" departDelay="1.00" arrival="122.00" arrivalLane="edge_E_out_0" arrivalPos="189.60" arrivalSpeed="12.87" duration="73.00" routeLength="397.40" waitingTime="33.00" waitingCount="1" stopTime="0.00" timeLoss="42.57" rerouteNo="0" devices="tripinfo_veh_632 routing_veh_632" vType="MOTORCYCLE" speedFactor="0.97" vaporized=""/>
    <tripinfo id="veh_117" depart="46.00" departLane="edge_W_in_0" departPos="12.10" departSpeed="0.00" departDelay="0.00" arrival="125.00" arrivalLane="edge_S_out_0" arrivalPos="189.60" arrivalSpeed="10.74" duration="79.00" routeLength="376.13" waitingTime="32.00" waitingCount="1" stopTime="0.00" timeLoss="44.58" rerouteNo="0" devices="tripinfo_veh_117 routing_veh_117" vType="TRUCK" speedFactor="0.98" vaporized=""/>
    <tripinfo id="veh_381" depart="52.00" departLane="edge_W_in_0" departPos="5.10" departSpeed="0.00" departDelay="1.00" arrival="125.00" arrivalLane="edge_N_out_1" arrivalPos="189.60" arrivalSpeed="12.10" duration="73.00" routeLength="393.45" waitingTime="31.00" waitingCount="1" stopTime="0.00" timeLoss="40.41" rerouteNo="0" devices="tripinfo_veh_381 routing_veh_381" vType="CAR" speedFactor="0.90" vaporized=""/>
    <tripinfo id="veh_587" depart="64.00" departLane="edge_W_in_0" departPos="5.10" departSpeed="0.00" departDelay="2.00" arrival="125.00" arrivalLane="edge_E_out_1" arrivalPos="189.60" arrivalSpeed="13.75" duration="61.00" routeLength="394.90" waitingTime="20.00" waitingCount="1" stopTime="0.00" timeLoss="31.98" rerouteNo="0" devices="tripinfo_veh_587 routing_veh_587" vType="CAR" speedFactor="1.00" vaporized=""/>
    <tripinfo id="veh_185" depart="55.00" departLane="edge_W_in_0" departPos="5.10" departSpeed="0.00" departDelay="1.00" arrival="128.00" arrivalLane="edge_S_out_0" arrivalPos="189.60" arrivalSpeed="13.11" duration="73.00" routeLength="383.13" waitingTime="30.00" waitingCount="1" stopTime="0.00" timeLoss="44.14" rerouteNo="0" devices="tripinfo_veh_185 routing_veh_185" vType="CAR" speedFactor="1.05" vaporized=""/>
    <tripinfo id="veh_46" depart="76.00" departLane="edge_E_in_0" departPos="12.10" departSpeed="0.00" departDelay="2.00" arrival="128.00" arrivalLane="edge_N_out_0" arrivalPos="189.60" arrivalSpeed="10.91" duration="52.00" routeLength="376.13" waitingTime="3.00" waitingCount="1" stopTime="0.00" timeLoss="16.67" rerouteNo="0" devices="tripinfo_veh_46 routing_veh_46" vType="TRUCK" speedFactor="1.02" vaporized=""/>
    <tripinfo id="veh_348" depart="75.00" departLane="edge_W_in_0" departPos="2.60" departSpeed="0.00" departDelay="0.00" arrival="128.00" arrivalLane="edge_N_out_1" arrivalPos="189.60" arrivalSpeed="12.61" duration="53.00" routeLength="395.95" waitingTime="12.00" waitingCount="1" stopTime="0.00" timeLoss="21.91" rerouteNo="0" devices="tripinfo_veh_348 routing_veh_348" vType="MOTORCYCLE" speedFactor="0.94" vaporized=""/>
    <tripinfo id="veh_142" depart="61.00" departLane="edge_W_in_0" departPos="5.10" departSpeed="0.00" departDelay="0.00" arrival="130.00" arrivalLane="edge_S_out_0" arrivalPos="189.60" arrivalSpeed="12.39" duration="69.00" routeLength="383.13" waitingTime="24.00" waitingCount="1" stopTime="0.00" timeLoss="37.91" rerouteNo="0" devices="tripinfo_veh_142 routing_veh_142" vType="CAR" speedFactor="0.94" vaporized=""/>
    <tripinfo id="veh_270" depart="79.00" departLane="edge_E_in_0" departPos="2.60" departSpeed="0.00" departDelay="5.00" arrival="130.00" arrivalLane="edge_N_out_0" arrivalPos="189.60" arrivalSpeed="13.89" duration="51.00" routeLength="385.63" waitingTime="3.00" waitingCount="1" stopTime="0.00" timeLoss="22.69" rerouteNo="0" devices="tripinfo_veh_270 routing_veh_270" vType="MOTORCYCLE" speedFactor="1.03" vaporized=""/>
    <tripinfo id="veh_693" depart="81.00" departLane="edge_E_in_0" departPos="2.60" departSpeed="0.00" departDelay="6.00" arrival="131.00" arrivalLane="edge_N_out_0" arrivalPos="189.60" arrivalSpeed="14.79" duration="50.00" routeLength="385.63" waitingTime="2.00" waitingCount="1" stopTime="0.00" timeLoss="25.87" rerouteNo="0" devices="tripinfo_veh_693 routing_veh_693" vType="MOTORCYCLE" speedFactor="1.19" vaporized=""/>
    <tripinfo id="veh_236" depart="87.00" departLane="edge_W_in_0" departPos="2.60" departSpeed="0.00" departDelay="0.00" arrival="131.00" arrivalLane="edge_S_out_0" arrivalPos="189.60" arrivalSpeed="13.84" duration="44.00" routeLength="385.63" waitingTime="1.00" waitingCount="1" stopTime="0.00" timeLoss="17.43" rerouteNo="0" devices="tripinfo_veh_236 routing_veh_236" vType="MOTORCYCLE" speedFactor="1.08" vaporized=""/>
    <tripinfo id="veh_583" depart="97.00" departLane="edge_W_in_0" departPos="5.10" departSpeed="0.00" departDelay="0.00" arrival="131.00" arrivalLane="edge_E_out_1" arrivalPos="189.60" arrivalSpeed="13.67" duration="34.00" routeLength="394.90" waitingTime="0.00" waitingCount="0" stopTime="0.00" timeLoss="4.73" rerouteNo="0" devices="tripinfo_veh_583 routing_veh_583" vType="CAR" speedFactor="1.06" vaporized=""/>
    <tripinfo id="veh_529" depart="72.00" departLane="edge_E_in_0" departPos="5.10" departSpeed="0.00" departDelay="0.00" arrival="134.00" arrivalLane="edge_S_out_1" arrivalPos="189.60" arrivalSpeed="13.63" duration="62.00" routeLength="393.45" waitingTime="22.00" waitingCount="2" stopTime="0.00" timeLoss="32.98" rerouteNo="0" devices="tripinfo_veh_529 routing_veh_529" vType="CAR" speedFactor="1.11" vaporized=""/>
    <tripinfo id="veh_594" depart="104.00" departLane="edge_E_in_0" departPos="5.10" departSpeed="0.00" departDelay="0.00" arrival="136.00" arrivalLane="edge_W_out_0" arrivalPos="189.60" arrivalSpeed="13.69" duration="32.00" routeLength="394.90" waitingTime="0.00" waitingCount="0" stopTime="0.00" timeLoss="3.55" rerouteNo="0" devices="tripinfo_veh_594 routing_veh_594" vType="CAR" speedFactor="1.17" vaporized=""/>
    <tripinfo id="veh_436" depart="101.00" departLane="edge_W_in_0" departPos="12.10" departSpeed="0.00" departDelay="1.00" arrival="142.00" arrivalLane="edge_E_out_0" arrivalPos="189.60" arrivalSpeed="11.05" duration="41.00" routeLength="387.90" waitingTime="0.00" waitingCount="0" stopTime="0.00" timeLoss="5.75" rerouteNo="0" devices="tripinfo_veh_436 routing_veh_436" vType="TRUCK" speedFactor="1.11" vaporized=""/>
    <tripinfo id="veh_195" depart="113.00" departLane="edge_E_in_0" departPos="2.60" departSpeed="0.00" departDelay="0.00" arrival="150.00" arrivalLane="edge_N_out_0" arrivalPos="189.60" arrivalSpeed="12.14" duration="37.00" routeLength="385.63" waitingTime="0.00" waitingCount="0" stopTime="0.00" timeLoss="5.67" rerouteNo="0" devices="tripinfo_veh_195 routing_veh_195" vType="MOTORCYCLE" speedFactor="0.93" vaporized=""/>
    <tripinfo id="veh_484" depart="110.00" departLane="edge_W_in_0" departPos="12.10" departSpeed="0.00" departDelay="0.00" arrival="151.00" arrivalLane="edge_E_out_0" arrivalPos="189.60" arrivalSpeed="10.55" duration="41.00" routeLength="387.90" waitingTime="0.00" waitingCount="0" stopTime="0.00" timeLoss="5.97" rerouteNo="0" devices="tripinfo_veh_484 routing_veh_484" vType="TRUCK" speedFactor="0.94" vaporized=""/>
    <tripinfo id="veh_435" depart="115.00" departLane="edge_E_in_0" departPos="5.10" departSpeed="0.00" departDelay="2.00" arrival="152.00" arrivalLane="edge_W_out_0" arrivalPos="189.60" arrivalSpeed="12.01" duration="37.00" routeLength="394.90" waitingTime="0.00" waitingCount="0" stopTime="0.00" timeLoss="5.05" rerouteNo="0" devices="tripinfo_veh_435 routing_veh_435" vType="CAR" speedFactor="0.90" vaporized=""/>
    <tripinfo id="veh_767" depart="114.00" departLane="edge_W_in_0" departPos="5.10" departSpeed="0.00" departDelay="1.00" arrival="155.00" arrivalLane="edge_N_out_1" arrivalPos="189.60" arrivalSpeed="13.62" duration="41.00" routeLength="393.45" waitingTime="2.00" waitingCount="1" stopTime="0.00" timeLoss="11.10" rerouteNo="0" devices="tripinfo_veh_767 routing_veh_767" vType="CAR" speedFactor="1.06" vaporized=""/>
    <tripinfo id="veh_734" depart="122.00" departLane="edge_E_in_0" departPos="5.10" departSpeed="0.00" departDelay="0.00" arrival="157.00" arrivalLane="edge_S_out_1" arrivalPos="189.60" arrivalSpeed="13.40" duration="35.00" routeLength="393.45" waitingTime="0.00" waitingCount="0" stopTime="0.00" timeLoss="5.71" rerouteNo="0" devices="tripinfo_veh_734 routing_veh_734" vType="CAR" speedFactor="1.24" vaporized=""/>
    <tripinfo id="veh_449" depart="126.00" departLane="edge_W_in_0" departPos="2.60" departSpeed="0.00" departDelay="0.00" arrival="163.00" arrivalLane="edge_N_out_1" arrivalPos="189.60" arrivalSpeed="12.55" duration="37.00" routeLength="395.95" waitingTime="0.00" waitingCount="0" stopTime="0.00" timeLoss="5.70" rerouteNo="0" devices="tripinfo_veh_449 routing_veh_449" vType="MOTORCYCLE" speedFactor="0.96" vaporized=""/>
    <tripinfo id="veh_601" depart="90.00" departLane="edge_S_in_0" departPos="2.60" departSpeed="0.00" departDelay="0.00" arrival="166.00" arrivalLane="edge_N_out_0" arrivalPos="189.60" arrivalSpeed="12.19" duration="76.00" routeLength="397.40" waitingTime="36.00" waitingCount="1" stopTime="0.00" timeLoss="46.91" rerouteNo="0" devices="tripinfo_veh_601 routing_veh_601" vType="MOTORCYCLE" speedFactor="1.00" vaporized=""/>
    <tripinfo id="veh_666" depart="80.00" departLane="edge_N_in_0" departPos="12.10" departSpeed="0.00" departDelay="0.00" arrival="172.00" arrivalLane="edge_S_out_0" arrivalPos="189.60" arrivalSpeed="10.86" duration="92.00" routeLength="387.90" waitingTime="43.00" waitingCount="1" stopTime="0.00" timeLoss="56.48" rerouteNo="0" devices="tripinfo_veh_666 routing_veh_666" vType="TRUCK" speedFactor="0.89" vaporized=""/>
    <tripinfo id="veh_758" depart="85.00" departLane="edge_S_in_0" departPos="5.10" departSpeed="0.00" departDelay="0.00" arrival="173.00" arrivalLane="edge_W_out_1" arrivalPos="189.60" arrivalSpeed="12.89" duration="88.00" routeLength="393.45" waitingTime="47.00" waitingCount="2" stopTime="0.00" timeLoss="57.22" rerouteNo="0" devices="tripinfo_veh_758 routing_veh_758" vType="CAR" speedFactor="0.95" vaporized=""/>
    <tripinfo id="veh_676" depart="128.00" departLane="edge_N_in_0" departPos="12.10" departSpeed="0.00" departDelay="0.00" arrival="173.00" arrivalLane="edge_E_out_0" arrivalPos="189.60" arrivalSpeed="10.93" duration="45.00" routeLength="386.45" waitingTime="0.00" waitingCount="0" stopTime="0.00" timeLoss="9.13" rerouteNo="0" devices="tripinfo_veh_676 routing_veh_676" vType="TRUCK" speedFactor="1.01" vaporized=""/>
    <tripinfo id="veh_45" depart="100.00" departLane="edge_N_in_0" departPos="12.10" departSpeed="0.00" departDelay="0.00" arrival="174.00" arrivalLane="edge_W_out_0" arrivalPos="189.60" arrivalSpeed="10.40" duration="74.00" routeLength="376.13" waitingTime="28.00" waitingCount="1" stopTime="0.00" timeLoss="39.01" rerouteNo="0" devices="tripinfo_veh_45 routing_veh_45" vType="TRUCK" speedFactor="1.00" vaporized=""/>
    <tripinfo id="veh_442" depart="96.00" departLane="edge_S_in_0" departPos="5.10" departSpeed="0.00" departDelay="0.00" arrival="175.00" arrivalLane="edge_W_out_1" arrivalPos="189.60" arrivalSpeed="12.93" duration="79.00" routeLength="393.45" waitingTime="37.00" waitingCount="2" stopTime="0.00" timeLoss="49.79" rerouteNo="0" devices="tripinfo_veh_442 routing_veh_442" vType="CAR" speedFactor="1.12" vaporized=""/>
    <tripinfo id="veh_149" depart="118.00" departLane="edge_S_in_0" departPos="5.10" departSpeed="0.00" departDelay="0.00" arrival="178.00" arrivalLane="edge_W_out_1" arrivalPos="189.60" arrivalSpeed="13.54" duration="60.00" routeLength="393.45" waitingTime="14.00" waitingCount="2" stopTime="0.00" timeLoss="30.32" rerouteNo="0" devices="tripinfo_veh_149 routing_veh_149" vType="CAR" speedFactor="1.05" vaporized=""/>
    <tripinfo id="veh_88" depart="103.00" departLane="edge_N_in_0" departPos="5.10" departSpeed="0.00" departDelay="1.00" arrival="180.00" arrivalLane="edge_W_out_0" arrivalPos="189.60" arrivalSpeed="9.63" duration="77.00" routeLength="383.13" waitingTime="26.00" waitingCount="1" stopTime="0.00" timeLoss="39.80" rerouteNo="0" devices="tripinfo_veh_88 routing_veh_88" vType="CAR" speedFactor="0.78" vaporized=""/>
    <tripinfo id="veh_187" depart="156.00" departLane="edge_S_in_0" departPos="5.10" departSpeed="0.00" departDelay="0.00" arrival="190.00" arrivalLane="edge_N_out_0" arrivalPos="189.60" arrivalSpeed="12.54" duration="34.00" routeLength="394.90" waitingTime="0.00" waitingCount="0" stopTime="0.00" timeLoss="4.48" rerouteNo="0" devices="tripinfo_veh_187 routing_veh_187" vType="CAR" speedFactor="0.97" vaporized=""/>
    <tripinfo id="veh_109" depart="163.00" departLane="edge_S_in_0" departPos="5.10" departSpeed="0.00" departDelay="0.00" arrival="198.00" arrivalLane="edge_W_out_1" arrivalPos="189.60" arrivalSpeed="13.84" duration="35.00" routeLength="393.45" waitingTime="0.00" waitingCount="0" stopTime="0.00" timeLoss="5.23" rerouteNo="0" devices="tripinfo_veh_109 routing_veh_109" vType="CAR" speedFactor="1.01" vaporized=""/>
    <tripinfo id="veh_97" depart="136.00" departLane="edge_E_in_0" departPos="5.10" departSpeed="0.00" departDelay="0.00" arrival="201.00" arrivalLane="edge_S_out_1" arrivalPos="189.60" arrivalSpeed="13.82" duration="65.00" routeLength="393.45" waitingTime="28.00" waitingCount="1" stopTime="0.00" timeLoss="35.82" rerouteNo="0" devices="tripinfo_veh_97 routing_veh_97" vType="CAR" speedFactor="1.04" vaporized=""/>
    <tripinfo id="veh_664" depart="141.00" departLane="edge_E_in_0" departPos="5.10" departSpeed="0.00" departDelay="0.00" arrival="201.00" arrivalLane="edge_W_out_0" arrivalPos="189.60" arrivalSpeed="13.79" duration="60.00" routeLength="394.90" waitingTime="22.00" waitingCount="1" stopTime="0.00" timeLoss="31.47" rerouteNo="0" devices="tripinfo_veh_664 routing_veh_664" vType="CAR" speedFactor="1.02" vaporized=""/>
    <tripinfo id="veh_4" depart="131.00" departLane="edge_W_in_0" departPos="2.60" departSpeed="0.00" departDelay="3.00" arrival="202.00" arrivalLane="edge_S_out_0" arrivalPos="189.60" arrivalSpeed="12.15" duration="71.00" routeLength="385.63" waitingTime="30.00" waitingCount="1" stopTime="0.00" timeLoss="39.00" rerouteNo="0" devices="tripinfo_veh_4 routing_veh_4" vType="MOTORCYCLE" speedFactor="0.90" vaporized=""/>
    <tripinfo id="veh_292" depart="149.00" departLane="edge_E_in_0" departPos="5.10" departSpeed="0.00" departDelay="1.00" arrival="203.00" arrivalLane="edge_W_out_1" arrivalPos="189.60" arrivalSpeed="13.69" duration="54.00" routeLength="394.90" waitingTime="15.00" waitingCount="1" stopTime="0.00" timeLoss="24.96" rerouteNo="0" devices="tripinfo_veh_292 routing_veh_292" vType="CAR" speedFactor="1.03" vaporized=""/>
    <tripinfo id="veh_93" depart="139.00" departLane="edge_W_in_0" departPos="5.10" departSpeed="0.00" departDelay="0.00" arrival="204.00" arrivalLane="edge_S_out_0" arrivalPos="189.60" arrivalSpeed="12.70" duration="65.00" routeLength="383.13" waitingTime="24.00" waitingCount="1" stopTime="0.00" timeLoss="34.88" rerouteNo="0" devices="tripinfo_veh_93 routing_veh_93" vType="CAR" speedFactor="0.96" vaporized=""/>
    <tripinfo id="veh_272" depart="152.00" departLane="edge_E_in_0" departPos="5.10" departSpeed="0.00" departDelay="3.00" arrival="205.00" arrivalLane="edge_W_out_1" arrivalPos="189.60" arrivalSpeed="13.11" duration="53.00" routeLength="394.90" waitingTime="13.00" waitingCount="1" stopTime="0.00" timeLoss="24.29" rerouteNo="0" devices="tripinfo_veh_272 routing_veh_272" vType="CAR" speedFactor="1.06" vaporized=""/>
    <tripinfo id="veh_318" depart="142.00" departLane="edge_W_in_0" departPos="5.10" departSpeed="0.00" departDelay="3.00" arrival="208.00" arrivalLane="edge_S_out_0" arrivalPos="189.60" arrivalSpeed="11.67" duration="66.00" routeLength="383.13" waitingTime="20.00" waitingCount="1" stopTime="0.00" timeLoss="31.55" rerouteNo="0" devices="tripinfo_veh_318 routing_veh_318" vType="CAR" speedFactor="0.84" vaporized=""/>
    <tripinfo id="veh_667" depart="145.00" departLane="edge_E_in_0" departPos="12.10" departSpeed="0.00" departDelay="3.00" arrival="208.00" arrivalLane="edge_N_out_0" arrivalPos="189.60" arrivalSpeed="11.05" duration="63.00" routeLength="376.13" waitingTime="15.00" waitingCount="1" stopTime="0.00" timeLoss="27.77" rerouteNo="0" devices="tripinfo_veh_667 routing_veh_667" vType="TRUCK" speedFactor="0.95" vaporized=""/>
    <tripinfo id="veh_654" depart="167.00" departLane="edge_E_in_0" departPos="2.60" departSpeed="0.00" departDelay="1.00" arrival="208.00" arrivalLane="edge_W_out_1" arrivalPos="189.60" arrivalSpeed="14.44" duration="41.00" routeLength="397.40" waitingTime="3.00" waitingCount="1" stopTime="0.00" timeLoss="14.96" rerouteNo="0" devices="tripinfo_veh_654 routing_veh_654" vType="MOTORCYCLE" speedFactor="1.13" vaporized=""/>
    <tripinfo id="veh_415" depart="160.00" departLane="edge_E_in_0" departPos="2.60" departSpeed="0.00" departDelay="0.00" arrival="209.00" arrivalLane="edge_S_out_1" arrivalPos="189.60" arrivalSpeed="11.58" duration="49.00" routeLength="395.95" waitingTime="7.00" waitingCount="1" stopTime="0.00" timeLoss="18.30" rerouteNo="0" devices="tripinfo_veh_415 routing_veh_415" vType="MOTORCYCLE" speedFactor="0.95" vaporized=""/>
    <tripinfo id="veh_18" depart="149.00" departLane="edge_W_in_0" departPos="5.10" departSpeed="0.00" departDelay="0.00" arrival="210.00" arrivalLane="edge_S_out_0" arrivalPos="189.60" arrivalSpeed="13.30" duration="61.00" routeLength="383.13" waitingTime="19.00" waitingCount="1" stopTime="0.00" timeLoss="31.88" rerouteNo="0" devices="tripinfo_veh_18 routing_veh_18" vType="CAR" speedFactor="1.16" vaporized=""/>
    <tripinfo id="veh_797" depart="165.00" departLane="edge_E_in_0" departPos="2.60" departSpeed="0.00" departDelay="0.00" arrival="210.00" arrivalLane="edge_N_out_0" arrivalPos="189.60" arrivalSpeed="11.39" duration="45.00" routeLength="385.63" waitingTime="1.00" waitingCount="1" stopTime="0.00" timeLoss="13.54" rerouteNo="0" devices="tripinfo_veh_797 routing_veh_797" vType="MOTORCYCLE" speedFactor="0.91" vaporized=""/>
    <tripinfo id="veh_580" depart="128.00" departLane="edge_W_in_0" departPos="5.10" departSpeed="0.00" departDelay="1.00" arrival="214.00" arrivalLane="edge_N_out_1" arrivalPos="189.60" arrivalSpeed="12.56" duration="86.00" routeLength="393.45" waitingTime="40.00" waitingCount="2" stopTime="0.00" timeLoss="55.50" rerouteNo="0" devices="tripinfo_veh_580 routing_veh_580" vType="CAR" speedFactor="0.95" vaporized=""/>
    <tripinfo id="veh_751" depart="135.00" departLane="edge_W_in_0" departPos="12.10" departSpeed="0.00" departDelay="2.00" arrival="220.00" arrivalLane="edge_N_out_1" arrivalPos="189.60" arrivalSpeed="10.40" duration="85.00" routeLength="386.45" waitingTime="33.00" waitingCount="2" stopTime="0.00" timeLoss="49.97" rerouteNo="0" devices="tripinfo_veh_751 routing_veh_751" vType="TRUCK" speedFactor="1.08" vaporized=""/>
    <tripinfo id="veh_359" depart="159.00" departLane="edge_W_in_0" departPos="5.10" departSpeed="0.00" departDelay="0.00" arrival="222.00" arrivalLane="edge_N_out_1" arrivalPos="189.60" arrivalSpeed="12.75" duration="63.00" routeLength="393.45" waitingTime="14.00" waitingCount="2" stopTime="0.00" timeLoss="34.02" rerouteNo="0" devices="tripinfo_veh_359 routing_veh_359" vType="CAR" speedFactor="1.02" vaporized=""/>
    <tripinfo id="veh_96" depart="166.00" departLane="edge_W_in_0" departPos="2.60" departSpeed="0.00" departDelay="0.00" arrival="224.00" arrivalLane="edge_N_out_1" arrivalPos="189.60" arrivalSpeed="12.98" duration="58.00" routeLength="395.95" waitingTime="9.00" waitingCount="2" stopTime="0.00" timeLoss="28.79" rerouteNo="0" devices="tripinfo_veh_96 routing_veh_96" vType="MOTORCYCLE" speedFactor="1.02" vaporized=""/>