<?xml version="1.0" encoding="UTF-8"?>

<!-- generated on 2025-05-04 22:34:03 by Eclipse SUMO GUI Version 1.22.0
<sumoConfiguration xmlns:xsi="http://www.w3.org/2001/XMLSchema-instance" xsi:noNamespaceSchemaLocation="http://sumo.dlr.de/xsd/sumoConfiguration.xsd">

    <input>
        <net-file value="my_intersection.net.xml"/>
        <route-files value="random_traffic.rou.xml"/>
        <additional-files value="tls_program.add.xml"/>
    </input>

    <output>
        <summary-output value="outputs\final_drl_mlp_summary.xml"/>
        <tripinfo-output value="outputs\final_drl_mlp_tripinfo.xml"/>
    </output>

    <time>
        <begin value="0"/>
        <end value="1800"/>
    </time>

    <processing>
        <ignore-route-errors value="true"/>
        <time-to-teleport value="-1"/>
        <waiting-time-memory value="1000"/>
    </processing>

    <report>
        <no-warnings value="true"/>
        <duration-log.disable value="true"/>
        <no-step-log value="true"/>
    </report>

    <traci_server>
        <remote-port value="8828"/>
    </traci_server>

    <random_number>
        <random value="true"/>
        <seed value="43"/>
    </random_number>

    <gui_only>
        <start value="true"/>
        <delay value="150"/>
        <tracker-interval value="0.1"/>
    </gui_only>

</sumoConfiguration>
-->

<tripinfos xmlns:xsi="http://www.w3.org/2001/XMLSchema-instance" xsi:noNamespaceSchemaLocation="http://sumo.dlr.de/xsd/tripinfo_file.xsd">
    <tripinfo id="veh_352" depart="5.00" departLane="edge_E_in_0" departPos="5.10" departSpeed="0.00" departDelay="0.00" arrival="40.00" arrivalLane="edge_W_out_0" arrivalPos="189.60" arrivalSpeed="11.59" duration="35.00" routeLength="394.90" waitingTime="0.00" waitingCount="0" stopTime="0.00" timeLoss="4.10" rerouteNo="0" devices="tripinfo_veh_352 routing_veh_352" vType="CAR" speedFactor="0.92" vaporized=""/>
    <tripinfo id="veh_542" depart="11.00" departLane="edge_E_in_0" departPos="5.10" departSpeed="0.00" departDelay="0.00" arrival="45.00" arrivalLane="edge_S_out_1" arrivalPos="189.60" arrivalSpeed="12.66" duration="34.00" routeLength="393.45" waitingTime="0.00" waitingCount="0" stopTime="0.00" timeLoss="4.62" rerouteNo="0" devices="tripinfo_veh_542 routing_veh_542" vType="CAR" speedFactor="1.06" vaporized=""/>
    <tripinfo id="veh_31" depart="8.00" departLane="edge_W_in_0" departPos="12.10" departSpeed="0.00" departDelay="0.00" arrival="49.00" arrivalLane="edge_S_out_0" arrivalPos="189.60" arrivalSpeed="10.83" duration="41.00" routeLength="376.13" waitingTime="0.00" waitingCount="0" stopTime="0.00" timeLoss="6.71" rerouteNo="0" devices="tripinfo_veh_31 routing_veh_31" vType="TRUCK" speedFactor="0.98" vaporized=""/>
    <tripinfo id="veh_234" depart="6.00" departLane="edge_N_in_0" departPos="2.60" departSpeed="0.00" departDelay="0.00" arrival="54.00" arrivalLane="edge_W_out_0" arrivalPos="189.60" arrivalSpeed="14.64" duration="48.00" routeLength="385.63" waitingTime="13.00" waitingCount="1" stopTime="0.00" timeLoss="21.99" rerouteNo="0" devices="tripinfo_veh_234 routing_veh_234" vType="MOTORCYCLE" speedFactor="1.13" vaporized=""/>
    <tripinfo id="veh_126" depart="13.00" departLane="edge_S_in_0" departPos="5.10" departSpeed="0.00" departDelay="0.00" arrival="56.00" arrivalLane="edge_N_out_0" arrivalPos="189.60" arrivalSpeed="12.66" duration="43.00" routeLength="394.90" waitingTime="5.00" waitingCount="1" stopTime="0.00" timeLoss="13.72" rerouteNo="0" devices="tripinfo_veh_126 routing_veh_126" vType="CAR" speedFactor="1.01" vaporized=""/>
    <tripinfo id="veh_547" depart="19.00" departLane="edge_S_in_0" departPos="5.10" departSpeed="0.00" departDelay="0.00" arrival="57.00" arrivalLane="edge_E_out_0" arrivalPos="189.60" arrivalSpeed="12.57" duration="38.00" routeLength="383.13" waitingTime="1.00" waitingCount="1" stopTime="0.00" timeLoss="9.57" rerouteNo="0" devices="tripinfo_veh_547 routing_veh_547" vType="CAR" speedFactor="1.09" vaporized=""/>
    <tripinfo id="veh_505" depart="23.00" departLane="edge_S_in_0" departPos="2.60" departSpeed="0.00" departDelay="0.00" arrival="59.00" arrivalLane="edge_E_out_0" arrivalPos="189.60" arrivalSpeed="14.91" duration="36.00" routeLength="385.63" waitingTime="0.00" waitingCount="0" stopTime="0.00" timeLoss="10.47" rerouteNo="0" devices="tripinfo_veh_505 routing_veh_505" vType="MOTORCYCLE" speedFactor="1.15" vaporized=""/>
    <tripinfo id="veh_585" depart="26.00" departLane="edge_S_in_0" departPos="12.10" departSpeed="0.00" departDelay="2.00" arrival="67.00" arrivalLane="edge_E_out_0" arrivalPos="189.60" arrivalSpeed="10.54" duration="41.00" routeLength="376.13" waitingTime="0.00" waitingCount="0" stopTime="0.00" timeLoss="6.70" rerouteNo="0" devices="tripinfo_veh_585 routing_veh_585" vType="TRUCK" speedFactor="0.97" vaporized=""/>
    <tripinfo id="veh_264" depart="27.00" departLane="edge_W_in_0" departPos="5.10" departSpeed="0.00" departDelay="1.00" arrival="70.00" arrivalLane="edge_S_out_0" arrivalPos="189.60" arrivalSpeed="13.36" duration="43.00" routeLength="383.13" waitingTime="6.00" waitingCount="1" stopTime="0.00" timeLoss="14.63" rerouteNo="0" devices="tripinfo_veh_264 routing_veh_264" vType="CAR" speedFactor="1.25" vaporized=""/>
    <tripinfo id="veh_720" depart="25.00" departLane="edge_W_in_0" departPos="5.10" departSpeed="0.00" departDelay="0.00" arrival="71.00" arrivalLane="edge_N_out_1" arrivalPos="189.60" arrivalSpeed="12.66" duration="46.00" routeLength="393.45" waitingTime="8.00" waitingCount="1" stopTime="0.00" timeLoss="16.48" rerouteNo="0" devices="tripinfo_veh_720 routing_veh_720" vType="CAR" speedFactor="1.09" vaporized=""/>
    <tripinfo id="veh_243" depart="25.00" departLane="edge_E_in_0" departPos="5.10" departSpeed="0.00" departDelay="0.00" arrival="72.00" arrivalLane="edge_S_out_1" arrivalPos="189.60" arrivalSpeed="12.99" duration="47.00" routeLength="393.45" waitingTime="5.00" waitingCount="1" stopTime="0.00" timeLoss="16.02" rerouteNo="0" devices="tripinfo_veh_243 routing_veh_243" vType="CAR" speedFactor="0.95" vaporized=""/>
    <tripinfo id="veh_510" depart="32.00" departLane="edge_E_in_0" departPos="5.10" departSpeed="0.00" departDelay="0.00" arrival="72.00" arrivalLane="edge_N_out_0" arrivalPos="189.60" arrivalSpeed="10.95" duration="40.00" routeLength="383.13" waitingTime="0.00" waitingCount="0" stopTime="0.00" timeLoss="7.05" rerouteNo="0" devices="tripinfo_veh_510 routing_veh_510" vType="CAR" speedFactor="0.86" vaporized=""/>
    <tripinfo id="veh_305" depart="41.00" departLane="edge_W_in_0" departPos="5.10" departSpeed="0.00" departDelay="0.00" arrival="75.00" arrivalLane="edge_S_out_0" arrivalPos="189.60" arrivalSpeed="12.78" duration="34.00" routeLength="383.13" waitingTime="0.00" waitingCount="0" stopTime="0.00" timeLoss="5.77" rerouteNo="0" devices="tripinfo_veh_305 routing_veh_305" vType="CAR" speedFactor="1.14" vaporized=""/>
    <tripinfo id="veh_147" depart="39.00" departLane="edge_E_in_0" departPos="12.10" departSpeed="0.00" departDelay="0.00" arrival="80.00" arrivalLane="edge_N_out_0" arrivalPos="189.60" arrivalSpeed="10.76" duration="41.00" routeLength="376.13" waitingTime="0.00" waitingCount="0" stopTime="0.00" timeLoss="6.47" rerouteNo="0" devices="tripinfo_veh_147 routing_veh_147" vType="TRUCK" speedFactor="1.08" vaporized=""/>
    <tripinfo id="veh_341" depart="40.00" departLane="edge_N_in_0" departPos="5.10" departSpeed="0.00" departDelay="0.00" arrival="86.00" arrivalLane="edge_E_out_1" arrivalPos="189.60" arrivalSpeed="12.66" duration="46.00" routeLength="393.45" waitingTime="8.00" waitingCount="1" stopTime="0.00" timeLoss="16.48" rerouteNo="0" devices="tripinfo_veh_341 routing_veh_341" vType="CAR" speedFactor="1.08" vaporized=""/>
    <tripinfo id="veh_284" depart="52.00" departLane="edge_N_in_0" departPos="12.10" departSpeed="0.00" departDelay="0.00" arrival="93.00" arrivalLane="edge_W_out_0" arrivalPos="189.60" arrivalSpeed="10.83" duration="41.00" routeLength="376.13" waitingTime="0.00" waitingCount="0" stopTime="0.00" timeLoss="6.48" rerouteNo="0" devices="tripinfo_veh_284 routing_veh_284" vType="TRUCK" speedFactor="1.03" vaporized=""/>
    <tripinfo id="veh_273" depart="63.00" departLane="edge_N_in_0" departPos="2.60" departSpeed="0.00" departDelay="0.00" arrival="95.00" arrivalLane="edge_W_out_0" arrivalPos="189.60" arrivalSpeed="15.07" duration="32.00" routeLength="385.63" waitingTime="0.00" waitingCount="0" stopTime="0.00" timeLoss="6.52" rerouteNo="0" devices="tripinfo_veh_273 routing_veh_273" vType="MOTORCYCLE" speedFactor="1.13" vaporized=""/>
    <tripinfo id="veh_632" depart="49.00" departLane="edge_W_in_0" departPos="2.60" departSpeed="0.00" departDelay="1.00" arrival="100.00" arrivalLane="edge_E_out_0" arrivalPos="189.60" arrivalSpeed="14.22" duration="51.00" routeLength="397.40" waitingTime="16.00" waitingCount="1" stopTime="0.00" timeLoss="23.40" rerouteNo="0" devices="tripinfo_veh_632 routing_veh_632" vType="MOTORCYCLE" speedFactor="1.06" vaporized=""/>
    <tripinfo id="veh_200" depart="52.00" departLane="edge_E_in_0" departPos="5.10" departSpeed="0.00" departDelay="0.00" arrival="101.00" arrivalLane="edge_W_out_1" arrivalPos="189.60" arrivalSpeed="12.66" duration="49.00" routeLength="394.90" waitingTime="12.00" waitingCount="1" stopTime="0.00" timeLoss="19.94" rerouteNo="0" devices="tripinfo_veh_200 routing_veh_200" vType="CAR" speedFactor="1.11" vaporized=""/>
    <tripinfo id="veh_587" depart="64.00" departLane="edge_W_in_0" departPos="5.10" departSpeed="0.00" departDelay="2.00" arrival="105.00" arrivalLane="edge_E_out_1" arrivalPos="189.60" arrivalSpeed="13.16" duration="41.00" routeLength="394.90" waitingTime="3.00" waitingCount="1" stopTime="0.00" timeLoss="11.94" rerouteNo="0" devices="tripinfo_veh_587 routing_veh_587" vType="CAR" speedFactor="1.14" vaporized=""/>
    <tripinfo id="veh_117" depart="46.00" departLane="edge_W_in_0" departPos="12.10" departSpeed="0.00" departDelay="0.00" arrival="106.00" arrivalLane="edge_S_out_0" arrivalPos="189.60" arrivalSpeed="11.03" duration="60.00" routeLength="376.13" waitingTime="13.00" waitingCount="1" stopTime="0.00" timeLoss="25.04" rerouteNo="0" devices="tripinfo_veh_117 routing_veh_117" vType="TRUCK" speedFactor="0.93" vaporized=""/>
    <tripinfo id="veh_381" depart="52.00" departLane="edge_W_in_0" departPos="5.10" departSpeed="0.00" departDelay="1.00" arrival="107.00" arrivalLane="edge_N_out_1" arrivalPos="189.60" arrivalSpeed="10.26" duration="55.00" routeLength="393.45" waitingTime="10.00" waitingCount="1" stopTime="0.00" timeLoss="18.53" rerouteNo="0" devices="tripinfo_veh_381 routing_veh_381" vType="CAR" speedFactor="0.80" vaporized=""/>
    <tripinfo id="veh_185" depart="54.00" departLane="edge_W_in_0" departPos="5.10" departSpeed="0.00" departDelay="0.00" arrival="108.00" arrivalLane="edge_S_out_0" arrivalPos="189.60" arrivalSpeed="12.54" duration="54.00" routeLength="383.13" waitingTime="11.00" waitingCount="1" stopTime="0.00" timeLoss="23.24" rerouteNo="0" devices="tripinfo_veh_185 routing_veh_185" vType="CAR" speedFactor="0.93" vaporized=""/>
    <tripinfo id="veh_348" depart="75.00" departLane="edge_W_in_0" departPos="2.60" departSpeed="0.00" departDelay="0.00" arrival="109.00" arrivalLane="edge_N_out_1" arrivalPos="189.60" arrivalSpeed="13.20" duration="34.00" routeLength="395.95" waitingTime="0.00" waitingCount="0" stopTime="0.00" timeLoss="5.83" rerouteNo="0" devices="tripinfo_veh_348 routing_veh_348" vType="MOTORCYCLE" speedFactor="1.05" vaporized=""/>
    <tripinfo id="veh_142" depart="61.00" departLane="edge_W_in_0" departPos="5.10" departSpeed="0.00" departDelay="0.00" arrival="110.00" arrivalLane="edge_S_out_0" arrivalPos="189.60" arrivalSpeed="11.05" duration="49.00" routeLength="383.13" waitingTime="4.00" waitingCount="1" stopTime="0.00" timeLoss="17.39" rerouteNo="0" devices="tripinfo_veh_142 routing_veh_142" vType="CAR" speedFactor="0.89" vaporized=""/>
    <tripinfo id="veh_529" depart="72.00" departLane="edge_E_in_0" departPos="5.10" departSpeed="0.00" departDelay="0.00" arrival="110.00" arrivalLane="edge_S_out_1" arrivalPos="189.60" arrivalSpeed="12.24" duration="38.00" routeLength="393.45" waitingTime="0.00" waitingCount="0" stopTime="0.00" timeLoss="5.11" rerouteNo="0" devices="tripinfo_veh_529 routing_veh_529" vType="CAR" speedFactor="0.89" vaporized=""/>
    <tripinfo id="veh_503" depart="70.00" departLane="edge_N_in_0" departPos="5.10" departSpeed="0.00" departDelay="0.00" arrival="116.00" arrivalLane="edge_W_out_0" arrivalPos="189.60" arrivalSpeed="13.29" duration="46.00" routeLength="383.13" waitingTime="9.00" waitingCount="1" stopTime="0.00" timeLoss="16.44" rerouteNo="0" devices="tripinfo_veh_503 routing_veh_503" vType="CAR" speedFactor="0.96" vaporized=""/>
    <tripinfo id="veh_722" depart="70.00" departLane="edge_S_in_0" departPos="5.10" departSpeed="0.00" departDelay="0.00" arrival="116.00" arrivalLane="edge_N_out_0" arrivalPos="189.60" arrivalSpeed="13.16" duration="46.00" routeLength="394.90" waitingTime="8.00" waitingCount="1" stopTime="0.00" timeLoss="17.28" rerouteNo="0" devices="tripinfo_veh_722 routing_veh_722" vType="CAR" speedFactor="1.02" vaporized=""/>
    <tripinfo id="veh_601" depart="90.00" departLane="edge_S_in_0" departPos="2.60" departSpeed="0.00" departDelay="0.00" arrival="120.00" arrivalLane="edge_N_out_0" arrivalPos="189.60" arrivalSpeed="15.11" duration="30.00" routeLength="397.40" waitingTime="0.00" waitingCount="0" stopTime="0.00" timeLoss="3.68" rerouteNo="0" devices="tripinfo_veh_601 routing_veh_601" vType="MOTORCYCLE" speedFactor="1.09" vaporized=""/>
    <tripinfo id="veh_666" depart="80.00" departLane="edge_N_in_0" departPos="12.10" departSpeed="0.00" departDelay="0.00" arrival="121.00" arrivalLane="edge_S_out_1" arrivalPos="189.60" arrivalSpeed="10.57" duration="41.00" routeLength="387.90" waitingTime="0.00" waitingCount="0" stopTime="0.00" timeLoss="5.33" rerouteNo="0" devices="tripinfo_veh_666 routing_veh_666" vType="TRUCK" speedFactor="1.07" vaporized=""/>
    <tripinfo id="veh_395" depart="75.00" departLane="edge_S_in_0" departPos="5.10" departSpeed="0.00" departDelay="0.00" arrival="122.00" arrivalLane="edge_W_out_1" arrivalPos="189.60" arrivalSpeed="12.83" duration="47.00" routeLength="393.45" waitingTime="8.00" waitingCount="2" stopTime="0.00" timeLoss="18.00" rerouteNo="0" devices="tripinfo_veh_395 routing_veh_395" vType="CAR" speedFactor="1.03" vaporized=""/>
    <tripinfo id="veh_758" depart="85.00" departLane="edge_S_in_0" departPos="5.10" departSpeed="0.00" departDelay="0.00" arrival="126.00" arrivalLane="edge_W_out_1" arrivalPos="189.60" arrivalSpeed="11.68" duration="41.00" routeLength="393.45" waitingTime="2.00" waitingCount="1" stopTime="0.00" timeLoss="8.91" rerouteNo="0" devices="tripinfo_veh_758 routing_veh_758" vType="CAR" speedFactor="0.92" vaporized=""/>
    <tripinfo id="veh_583" depart="97.00" departLane="edge_W_in_0" departPos="5.10" departSpeed="0.00" departDelay="0.00" arrival="132.00" arrivalLane="edge_E_out_1" arrivalPos="189.60" arrivalSpeed="12.13" duration="35.00" routeLength="394.90" waitingTime="0.00" waitingCount="0" stopTime="0.00" timeLoss="4.31" rerouteNo="0" devices="tripinfo_veh_583 routing_veh_583" vType="CAR" speedFactor="0.94" vaporized=""/>
    <tripinfo id="veh_46" depart="76.00" departLane="edge_E_in_0" departPos="12.10" departSpeed="0.00" departDelay="2.00" arrival="136.00" arrivalLane="edge_N_out_0" arrivalPos="189.60" arrivalSpeed="10.74" duration="60.00" routeLength="376.13" waitingTime="13.00" waitingCount="1" stopTime="0.00" timeLoss="25.48" rerouteNo="0" devices="tripinfo_veh_46 routing_veh_46" vType="TRUCK" speedFactor="0.96" vaporized=""/>
    <tripinfo id="veh_594" depart="104.00" departLane="edge_E_in_0" departPos="5.10" departSpeed="0.00" departDelay="0.00" arrival="137.00" arrivalLane="edge_W_out_1" arrivalPos="189.60" arrivalSpeed="13.13" duration="33.00" routeLength="394.90" waitingTime="0.00" waitingCount="0" stopTime="0.00" timeLoss="4.52" rerouteNo="0" devices="tripinfo_veh_594 routing_veh_594" vType="CAR" speedFactor="1.03" vaporized=""/>
    <tripinfo id="veh_236" depart="87.00" departLane="edge_W_in_0" departPos="2.60" departSpeed="0.00" departDelay="0.00" arrival="138.00" arrivalLane="edge_S_out_0" arrivalPos="189.60" arrivalSpeed="8.31" duration="51.00" routeLength="385.63" waitingTime="0.00" waitingCount="0" stopTime="0.00" timeLoss="9.67" rerouteNo="0" devices="tripinfo_veh_236 routing_veh_236" vType="MOTORCYCLE" speedFactor="0.70" vaporized=""/>
    <tripinfo id="veh_270" depart="79.00" departLane="edge_E_in_0" departPos="2.60" departSpeed="0.00" departDelay="5.00" arrival="139.00" arrivalLane="edge_N_out_0" arrivalPos="189.60" arrivalSpeed="13.39" duration="60.00" routeLength="385.63" waitingTime="12.00" waitingCount="1" stopTime="0.00" timeLoss="29.82" rerouteNo="0" devices="tripinfo_veh_270 routing_veh_270" vType="MOTORCYCLE" speedFactor="0.98" vaporized=""/>
    <tripinfo id="veh_693" depart="81.00" departLane="edge_E_in_0" departPos="2.60" departSpeed="0.00" departDelay="6.00" arrival="141.00" arrivalLane="edge_N_out_0" arrivalPos="189.60" arrivalSpeed="11.32" duration="60.00" routeLength="385.63" waitingTime="11.00" waitingCount="1" stopTime="0.00" timeLoss="25.88" rerouteNo="0" devices="tripinfo_veh_693 routing_veh_693" vType="MOTORCYCLE" speedFactor="0.86" vaporized=""/>
    <tripinfo id="veh_436" depart="101.00" departLane="edge_W_in_0" departPos="12.10" departSpeed="0.00" departDelay="1.00" arrival="142.00" arrivalLane="edge_E_out_0" arrivalPos="189.60" arrivalSpeed="10.48" duration="41.00" routeLength="387.90" waitingTime="0.00" waitingCount="0" stopTime="0.00" timeLoss="5.30" rerouteNo="0" devices="tripinfo_veh_436 routing_veh_436" vType="TRUCK" speedFactor="0.98" vaporized=""/>
    <tripinfo id="veh_442" depart="96.00" departLane="edge_S_in_0" departPos="5.10" departSpeed="0.00" departDelay="0.00" arrival="146.00" arrivalLane="edge_W_out_1" arrivalPos="189.60" arrivalSpeed="12.64" duration="50.00" routeLength="393.45" waitingTime="13.00" waitingCount="1" stopTime="0.00" timeLoss="20.91" rerouteNo="0" devices="tripinfo_veh_442 routing_veh_442" vType="CAR" speedFactor="1.13" vaporized=""/>
    <tripinfo id="veh_45" depart="100.00" departLane="edge_N_in_0" departPos="12.10" departSpeed="0.00" departDelay="0.00" arrival="150.00" arrivalLane="edge_W_out_0" arrivalPos="189.60" arrivalSpeed="10.80" duration="50.00" routeLength="376.13" waitingTime="4.00" waitingCount="1" stopTime="0.00" timeLoss="15.50" rerouteNo="0" devices="tripinfo_veh_45 routing_veh_45" vType="TRUCK" speedFactor="0.99" vaporized=""/>
    <tripinfo id="veh_88" depart="104.00" departLane="edge_N_in_0" departPos="5.10" departSpeed="0.00" departDelay="2.00" arrival="152.00" arrivalLane="edge_W_out_0" arrivalPos="189.60" arrivalSpeed="13.66" duration="48.00" routeLength="383.13" waitingTime="4.00" waitingCount="1" stopTime="0.00" timeLoss="18.95" rerouteNo="0" devices="tripinfo_veh_88 routing_veh_88" vType="CAR" speedFactor="0.98" vaporized=""/>
    <tripinfo id="veh_149" depart="118.00" departLane="edge_S_in_0" departPos="5.10" departSpeed="0.00" departDelay="0.00" arrival="153.00" arrivalLane="edge_W_out_1" arrivalPos="189.60" arrivalSpeed="13.18" duration="35.00" routeLength="393.45" waitingTime="0.00" waitingCount="0" stopTime="0.00" timeLoss="4.76" rerouteNo="0" devices="tripinfo_veh_149 routing_veh_149" vType="CAR" speedFactor="1.00" vaporized=""/>
    <tripinfo id="veh_195" depart="113.00" departLane="edge_E_in_0" departPos="2.60" departSpeed="0.00" departDelay="0.00" arrival="158.00" arrivalLane="edge_N_out_0" arrivalPos="189.60" arrivalSpeed="15.61" duration="45.00" routeLength="385.63" waitingTime="13.00" waitingCount="1" stopTime="0.00" timeLoss="20.47" rerouteNo="0" devices="tripinfo_veh_195 routing_veh_195" vType="MOTORCYCLE" speedFactor="1.16" vaporized=""/>
    <tripinfo id="veh_435" depart="115.00" departLane="edge_E_in_0" departPos="5.10" departSpeed="0.00" departDelay="2.00" arrival="162.00" arrivalLane="edge_W_out_0" arrivalPos="189.60" arrivalSpeed="13.60" duration="47.00" routeLength="394.90" waitingTime="6.00" waitingCount="1" stopTime="0.00" timeLoss="17.66" rerouteNo="0" devices="tripinfo_veh_435 routing_veh_435" vType="CAR" speedFactor="1.13" vaporized=""/>
    <tripinfo id="veh_4" depart="130.00" departLane="edge_W_in_0" departPos="2.60" departSpeed="0.00" departDelay="2.00" arrival="165.00" arrivalLane="edge_S_out_0" arrivalPos="189.60" arrivalSpeed="13.49" duration="35.00" routeLength="385.63" waitingTime="0.00" waitingCount="0" stopTime="0.00" timeLoss="6.30" rerouteNo="0" devices="tripinfo_veh_4 routing_veh_4" vType="MOTORCYCLE" speedFactor="0.98" vaporized=""/>
    <tripinfo id="veh_484" depart="110.00" departLane="edge_W_in_0" departPos="12.10" departSpeed="0.00" departDelay="0.00" arrival="166.00" arrivalLane="edge_E_out_0" arrivalPos="189.60" arrivalSpeed="10.90" duration="56.00" routeLength="387.90" waitingTime="9.00" waitingCount="1" stopTime="0.00" timeLoss="21.08" rerouteNo="0" devices="tripinfo_veh_484 routing_veh_484" vType="TRUCK" speedFactor="1.04" vaporized=""/>
    <tripinfo id="veh_767" depart="114.00" departLane="edge_W_in_0" departPos="5.10" departSpeed="0.00" departDelay="1.00" arrival="166.00" arrivalLane="edge_N_out_1" arrivalPos="189.60" arrivalSpeed="12.16" duration="52.00" routeLength="393.45" waitingTime="12.00" waitingCount="2" stopTime="0.00" timeLoss="21.92" rerouteNo="0" devices="tripinfo_veh_767 routing_veh_767" vType="CAR" speedFactor="0.97" vaporized=""/>
    <tripinfo id="veh_734" depart="122.00" departLane="edge_E_in_0" departPos="5.10" departSpeed="0.00" departDelay="0.00" arrival="168.00" arrivalLane="edge_S_out_1" arrivalPos="189.60" arrivalSpeed="13.27" duration="46.00" routeLength="393.45" waitingTime="4.00" waitingCount="1" stopTime="0.00" timeLoss="15.16" rerouteNo="0" devices="tripinfo_veh_734 routing_veh_734" vType="CAR" speedFactor="0.97" vaporized=""/>
    <tripinfo id="veh_449" depart="126.00" departLane="edge_W_in_0" departPos="2.60" departSpeed="0.00" departDelay="0.00" arrival="168.00" arrivalLane="edge_N_out_1" arrivalPos="189.60" arrivalSpeed="12.83" duration="42.00" routeLength="395.95" waitingTime="0.00" waitingCount="0" stopTime="0.00" timeLoss="13.56" rerouteNo="0" devices="tripinfo_veh_449 routing_veh_449" vType="MOTORCYCLE" speedFactor="1.04" vaporized=""/>
    <tripinfo id="veh_580" depart="128.00" departLane="edge_W_in_0" departPos="5.10" departSpeed="0.00" departDelay="1.00" arrival="170.00" arrivalLane="edge_N_out_1" arrivalPos="189.60" arrivalSpeed="13.23" duration="42.00" routeLength="393.45" waitingTime="0.00" waitingCount="0" stopTime="0.00" timeLoss="12.84" rerouteNo="0" devices="tripinfo_veh_580 routing_veh_580" vType="CAR" speedFactor="1.06" vaporized=""/>
    <tripinfo id="veh_97" depart="136.00" departLane="edge_E_in_0" departPos="5.10" departSpeed="0.00" departDelay="0.00" arrival="172.00" arrivalLane="edge_S_out_1" arrivalPos="189.60" arrivalSpeed="13.33" duration="36.00" routeLength="393.45" waitingTime="0.00" waitingCount="0" stopTime="0.00" timeLoss="5.31" rerouteNo="0" devices="tripinfo_veh_97 routing_veh_97" vType="CAR" speedFactor="0.96" vaporized=""/>
    <tripinfo id="veh_676" depart="128.00" departLane="edge_N_in_0" departPos="12.10" departSpeed="0.00" departDelay="0.00" arrival="181.00" arrivalLane="edge_E_out_1" arrivalPos="189.60" arrivalSpeed="10.51" duration="53.00" routeLength="386.45" waitingTime="6.00" waitingCount="1" stopTime="0.00" timeLoss="17.15" rerouteNo="0" devices="tripinfo_veh_676 routing_veh_676" vType="TRUCK" speedFactor="0.88" vaporized=""/>
    <tripinfo id="veh_664" depart="141.00" departLane="edge_E_in_0" departPos="5.10" departSpeed="0.00" departDelay="0.00" arrival="191.00" arrivalLane="edge_W_out_0" arrivalPos="189.60" arrivalSpeed="13.47" duration="50.00" routeLength="394.90" waitingTime="12.00" waitingCount="1" stopTime="0.00" timeLoss="21.12" rerouteNo="0" devices="tripinfo_veh_664 routing_veh_664" vType="CAR" speedFactor="1.18" vaporized=""/>
    <tripinfo id="veh_93" depart="139.00" departLane="edge_W_in_0" departPos="5.10" departSpeed="0.00" departDelay="0.00" arrival="192.00" arrivalLane="edge_S_out_0" arrivalPos="189.60" arrivalSpeed="11.72" duration="53.00" routeLength="383.13" waitingTime="11.00" waitingCount="1" stopTime="0.00" timeLoss="21.40" rerouteNo="0" devices="tripinfo_veh_93 routing_veh_93" vType="CAR" speedFactor="0.89" vaporized=""/>
    <tripinfo id="veh_292" depart="149.00" departLane="edge_E_in_0" departPos="5.10" departSpeed="0.00" departDelay="1.00" arrival="192.00" arrivalLane="edge_W_out_1" arrivalPos="189.60" arrivalSpeed="12.54" duration="43.00" routeLength="394.90" waitingTime="2.00" waitingCount="1" stopTime="0.00" timeLoss="11.81" rerouteNo="0" devices="tripinfo_veh_292 routing_veh_292" vType="CAR" speedFactor="0.93" vaporized=""/>
    <tripinfo id="veh_318" depart="142.00" departLane="edge_W_in_0" departPos="5.10" departSpeed="0.00" departDelay="3.00" arrival="194.00" arrivalLane="edge_S_out_0" arrivalPos="189.60" arrivalSpeed="13.29" duration="52.00" routeLength="383.13" waitingTime="11.00" waitingCount="1" stopTime="0.00" timeLoss="23.23" rerouteNo="0" devices="tripinfo_veh_318 routing_veh_318" vType="CAR" speedFactor="1.14" vaporized=""/>
    <tripinfo id="veh_272" depart="151.00" departLane="edge_E_in_0" departPos="5.10" departSpeed="0.00" departDelay="2.00" arrival="195.00" arrivalLane="edge_W_out_1" arrivalPos="189.60" arrivalSpeed="12.17" duration="44.00" routeLength="394.90" waitingTime="2.00" waitingCount="1" stopTime="0.00" timeLoss="12.27" rerouteNo="0" devices="tripinfo_veh_272 routing_veh_272" vType="CAR" speedFactor="0.92" vaporized=""/>
    <tripinfo id="veh_18" depart="149.00" departLane="edge_W_in_0" departPos="5.10" departSpeed="0.00" departDelay="0.00" arrival="196.00" arrivalLane="edge_S_out_0" arrivalPos="189.60" arrivalSpeed="12.82" duration="47.00" routeLength="383.13" waitingTime="7.00" waitingCount="1" stopTime="0.00" timeLoss="18.41" rerouteNo="0" devices="tripinfo_veh_18 routing_veh_18" vType="CAR" speedFactor="1.06" vaporized=""/>
    <tripinfo id="veh_667" depart="145.00" departLane="edge_E_in_0" departPos="12.10" departSpeed="0.00" departDelay="3.00" arrival="197.00" arrivalLane="edge_N_out_0" arrivalPos="189.60" arrivalSpeed="10.36" duration="52.00" routeLength="376.13" waitingTime="6.00" waitingCount="1" stopTime="0.00" timeLoss="17.15" rerouteNo="0" devices="tripinfo_veh_667 routing_veh_667" vType="TRUCK" speedFactor="0.97" vaporized=""/>
    <tripinfo id="veh_415" depart="160.00" departLane="edge_E_in_0" departPos="2.60" departSpeed="0.00" departDelay="0.00" arrival="199.00" arrivalLane="edge_S_out_1" arrivalPos="189.60" arrivalSpeed="12.12" duration="39.00" routeLength="395.95" waitingTime="0.00" waitingCount="0" stopTime="0.00" timeLoss="5.35" rerouteNo="0" devices="tripinfo_veh_415 routing_veh_415" vType="MOTORCYCLE" speedFactor="0.89" vaporized=""/>
    <tripinfo id="veh_797" depart="165.00" departLane="edge_E_in_0" departPos="2.60" departSpeed="0.00" departDelay="0.00" arrival="199.00" arrivalLane="edge_N_out_0" arrivalPos="189.60" arrivalSpeed="13.33" duration="34.00" routeLength="385.63" waitingTime="0.00" waitingCount="0" stopTime="0.00" timeLoss="7.45" rerouteNo="0" devices="tripinfo_veh_797 routing_veh_797" vType="MOTORCYCLE" speedFactor="1.08" vaporized=""/>
    <tripinfo id="veh_654" depart="167.00" departLane="edge_E_in_0" departPos="2.60" departSpeed="0.00" departDelay="1.00" arrival="200.00" arrivalLane="edge_W_out_0" arrivalPos="189.60" arrivalSpeed="13.59" duration="33.00" routeLength="397.40" waitingTime="0.00" waitingCount="0" stopTime="0.00" timeLoss="4.12" rerouteNo="0" devices="tripinfo_veh_654 routing_veh_654" vType="MOTORCYCLE" speedFactor="1.01" vaporized=""/>
    <tripinfo id="veh_187" depart="156.00" departLane="edge_S_in_0" departPos="5.10" departSpeed="0.00" departDelay="0.00" arrival="208.00" arrivalLane="edge_N_out_0" arrivalPos="189.60" arrivalSpeed="11.78" duration="52.00" routeLength="394.90" waitingTime="10.00" waitingCount="1" stopTime="0.00" timeLoss="20.73" rerouteNo="0" devices="tripinfo_veh_187 routing_veh_187" vType="CAR" speedFactor="0.93" vaporized=""/>
    <tripinfo id="veh_751" depart="134.00" departLane="edge_W_in_0" departPos="12.10" departSpeed="0.00" departDelay="1.00" arrival="209.00" arrivalLane="edge_N_out_1" arrivalPos="189.60" arrivalSpeed="10.99" duration="75.00" routeLength="386.45" waitingTime="24.00" waitingCount="2" stopTime="0.00" timeLoss="39.60" rerouteNo="0" devices="tripinfo_veh_751 routing_veh_751" vType="TRUCK" speedFactor="1.17" vaporized=""/>
    <tripinfo id="veh_109" depart="163.00" departLane="edge_S_in_0" departPos="5.10" departSpeed="0.00" departDelay="0.00" arrival="209.00" arrivalLane="edge_W_out_1" arrivalPos="189.60" arrivalSpeed="13.33" duration="46.00" routeLength="393.45" waitingTime="7.00" waitingCount="2" stopTime="0.00" timeLoss="17.03" rerouteNo="0" devices="tripinfo_veh_109 routing_veh_109" vType="CAR" speedFactor="1.22" vaporized=""/>
    <tripinfo id="veh_621" depart="174.00" departLane="edge_N_in_0" departPos="5.10" departSpeed="0.00" departDelay="0.00" arrival="211.00" arrivalLane="edge_E_out_1" arrivalPos="189.60" arrivalSpeed="13.57" duration="37.00" routeLength="393.45" waitingTime="0.00" waitingCount="0" stopTime="0.00" timeLoss="6.63" rerouteNo="0" devices="tripinfo_veh_621 routing_veh_621" vType="CAR" speedFactor="0.99" vaporized=""/>
    <tripinfo id="veh_558" depart="177.00" departLane="edge_S_in_0" departPos="5.10" departSpeed="0.00" departDelay="0.00" arrival="213.00" arrivalLane="edge_E_out_0" arrivalPos="189.60" arrivalSpeed="13.52" duration="36.00" routeLength="383.13" waitingTime="0.00" waitingCount="0" stopTime="0.00" timeLoss="6.92" rerouteNo="0" devices="tripinfo_veh_558 routing_veh_558" vType="CAR" speedFactor="0.98" vaporized=""/>