<?xml version="1.0" encoding="UTF-8"?>

<!-- generated on 2025-05-03 08:04:00 by Eclipse SUMO GUI Version 1.22.0
<sumoConfiguration xmlns:xsi="http://www.w3.org/2001/XMLSchema-instance" xsi:noNamespaceSchemaLocation="http://sumo.dlr.de/xsd/sumoConfiguration.xsd">

    <input>
        <net-file value="my_intersection.net.xml"/>
        <route-files value="random_traffic.rou.xml"/>
        <additional-files value="tls_program.add.xml"/>
    </input>

    <output>
        <summary-output value="outputs\final_drl_summary.xml"/>
        <tripinfo-output value="outputs\final_drl_tripinfo.xml"/>
    </output>

    <time>
        <begin value="0"/>
        <end value="1800"/>
    </time>

    <processing>
        <ignore-route-errors value="true"/>
        <time-to-teleport value="-1"/>
        <waiting-time-memory value="1000"/>
    </processing>

    <report>
        <no-warnings value="true"/>
        <duration-log.disable value="true"/>
        <no-step-log value="true"/>
    </report>

    <traci_server>
        <remote-port value="8827"/>
    </traci_server>

    <random_number>
        <random value="true"/>
        <seed value="43"/>
    </random_number>

    <gui_only>
        <start value="true"/>
        <delay value="150"/>
        <tracker-interval value="0.1"/>
    </gui_only>

</sumoConfiguration>
-->

<tripinfos xmlns:xsi="http://www.w3.org/2001/XMLSchema-instance" xsi:noNamespaceSchemaLocation="http://sumo.dlr.de/xsd/tripinfo_file.xsd">
    <tripinfo id="veh_1620" depart="7.00" departLane="edge_E_in_0" departPos="5.10" departSpeed="0.00" departDelay="2.00" arrival="40.00" arrivalLane="edge_N_out_0" arrivalPos="189.60" arrivalSpeed="13.47" duration="33.00" routeLength="383.13" waitingTime="0.00" waitingCount="0" stopTime="0.00" timeLoss="4.65" rerouteNo="0" devices="tripinfo_veh_1620 routing_veh_1620" vType="CAR" speedFactor="1.18" vaporized=""/>
    <tripinfo id="veh_283" depart="5.00" departLane="edge_W_in_0" departPos="5.10" departSpeed="0.00" departDelay="0.00" arrival="41.00" arrivalLane="edge_E_out_0" arrivalPos="189.60" arrivalSpeed="12.38" duration="36.00" routeLength="394.90" waitingTime="0.00" waitingCount="0" stopTime="0.00" timeLoss="4.25" rerouteNo="0" devices="tripinfo_veh_283 routing_veh_283" vType="CAR" speedFactor="0.90" vaporized=""/>
    <tripinfo id="veh_210" depart="12.00" departLane="edge_E_in_0" departPos="2.60" departSpeed="0.00" departDelay="0.00" arrival="41.00" arrivalLane="edge_W_out_0" arrivalPos="189.60" arrivalSpeed="15.34" duration="29.00" routeLength="397.40" waitingTime="0.00" waitingCount="0" stopTime="0.00" timeLoss="3.67" rerouteNo="0" devices="tripinfo_veh_210 routing_veh_210" vType="MOTORCYCLE" speedFactor="1.14" vaporized=""/>
    <tripinfo id="veh_1220" depart="10.00" departLane="edge_W_in_0" departPos="5.10" departSpeed="0.00" departDelay="3.00" arrival="43.00" arrivalLane="edge_E_out_0" arrivalPos="189.60" arrivalSpeed="12.54" duration="33.00" routeLength="394.90" waitingTime="0.00" waitingCount="0" stopTime="0.00" timeLoss="4.54" rerouteNo="0" devices="tripinfo_veh_1220 routing_veh_1220" vType="CAR" speedFactor="1.10" vaporized=""/>
    <tripinfo id="veh_1403" depart="8.00" departLane="edge_W_in_0" departPos="5.10" departSpeed="0.00" departDelay="3.00" arrival="46.00" arrivalLane="edge_N_out_1" arrivalPos="189.60" arrivalSpeed="13.31" duration="38.00" routeLength="393.45" waitingTime="0.00" waitingCount="0" stopTime="0.00" timeLoss="8.92" rerouteNo="0" devices="tripinfo_veh_1403 routing_veh_1403" vType="CAR" speedFactor="1.04" vaporized=""/>
    <tripinfo id="veh_2023" depart="15.00" departLane="edge_W_in_0" departPos="2.60" departSpeed="0.00" departDelay="8.00" arrival="47.00" arrivalLane="edge_E_out_1" arrivalPos="189.60" arrivalSpeed="14.57" duration="32.00" routeLength="397.40" waitingTime="0.00" waitingCount="0" stopTime="0.00" timeLoss="4.36" rerouteNo="0" devices="tripinfo_veh_2023 routing_veh_2023" vType="MOTORCYCLE" speedFactor="1.07" vaporized=""/>
    <tripinfo id="veh_1837" depart="13.00" departLane="edge_W_in_0" departPos="5.10" departSpeed="0.00" departDelay="6.00" arrival="48.00" arrivalLane="edge_E_out_0" arrivalPos="189.60" arrivalSpeed="11.91" duration="35.00" routeLength="394.90" waitingTime="0.00" waitingCount="0" stopTime="0.00" timeLoss="4.71" rerouteNo="0" devices="tripinfo_veh_1837 routing_veh_1837" vType="CAR" speedFactor="0.95" vaporized=""/>
    <tripinfo id="veh_2042" depart="16.00" departLane="edge_E_in_0" departPos="2.60" departSpeed="0.00" departDelay="0.00" arrival="49.00" arrivalLane="edge_N_out_0" arrivalPos="189.60" arrivalSpeed="13.87" duration="33.00" routeLength="385.63" waitingTime="0.00" waitingCount="0" stopTime="0.00" timeLoss="5.82" rerouteNo="0" devices="tripinfo_veh_2042 routing_veh_2042" vType="MOTORCYCLE" speedFactor="1.07" vaporized=""/>
    <tripinfo id="veh_701" depart="18.00" departLane="edge_W_in_0" departPos="5.10" departSpeed="0.00" departDelay="8.00" arrival="52.00" arrivalLane="edge_N_out_1" arrivalPos="189.60" arrivalSpeed="13.00" duration="34.00" routeLength="393.45" waitingTime="0.00" waitingCount="0" stopTime="0.00" timeLoss="4.38" rerouteNo="0" devices="tripinfo_veh_701 routing_veh_701" vType="CAR" speedFactor="1.15" vaporized=""/>
    <tripinfo id="veh_174" depart="4.00" departLane="edge_E_in_0" departPos="5.10" departSpeed="0.00" departDelay="0.00" arrival="53.00" arrivalLane="edge_S_out_1" arrivalPos="189.60" arrivalSpeed="12.17" duration="49.00" routeLength="393.45" waitingTime="8.00" waitingCount="1" stopTime="0.00" timeLoss="18.33" rerouteNo="0" devices="tripinfo_veh_174 routing_veh_174" vType="CAR" speedFactor="0.97" vaporized=""/>
    <tripinfo id="veh_1917" depart="9.00" departLane="edge_N_in_0" departPos="5.10" departSpeed="0.00" departDelay="0.00" arrival="56.00" arrivalLane="edge_S_out_0" arrivalPos="189.60" arrivalSpeed="11.95" duration="47.00" routeLength="394.90" waitingTime="9.00" waitingCount="1" stopTime="0.00" timeLoss="17.41" rerouteNo="0" devices="tripinfo_veh_1917 routing_veh_1917" vType="CAR" speedFactor="0.96" vaporized=""/>
    <tripinfo id="veh_2454" depart="20.00" departLane="edge_N_in_0" departPos="2.60" departSpeed="0.00" departDelay="0.00" arrival="57.00" arrivalLane="edge_W_out_0" arrivalPos="189.60" arrivalSpeed="13.66" duration="37.00" routeLength="385.63" waitingTime="2.00" waitingCount="1" stopTime="0.00" timeLoss="9.90" rerouteNo="0" devices="tripinfo_veh_2454 routing_veh_2454" vType="MOTORCYCLE" speedFactor="1.08" vaporized=""/>
    <tripinfo id="veh_1125" depart="8.00" departLane="edge_S_in_0" departPos="5.10" departSpeed="0.00" departDelay="3.00" arrival="59.00" arrivalLane="edge_E_out_1" arrivalPos="189.60" arrivalSpeed="13.61" duration="51.00" routeLength="383.13" waitingTime="9.00" waitingCount="1" stopTime="0.00" timeLoss="22.81" rerouteNo="0" devices="tripinfo_veh_1125 routing_veh_1125" vType="CAR" speedFactor="1.03" vaporized=""/>
    <tripinfo id="veh_1114" depart="5.00" departLane="edge_S_in_0" departPos="5.10" departSpeed="0.00" departDelay="0.00" arrival="60.00" arrivalLane="edge_E_out_0" arrivalPos="189.60" arrivalSpeed="10.36" duration="55.00" routeLength="383.13" waitingTime="8.00" waitingCount="1" stopTime="0.00" timeLoss="18.10" rerouteNo="0" devices="tripinfo_veh_1114 routing_veh_1114" vType="CAR" speedFactor="0.77" vaporized=""/>
    <tripinfo id="veh_1903" depart="10.00" departLane="edge_S_in_0" departPos="2.60" departSpeed="0.00" departDelay="2.00" arrival="62.00" arrivalLane="edge_E_out_0" arrivalPos="189.60" arrivalSpeed="14.46" duration="52.00" routeLength="385.63" waitingTime="7.00" waitingCount="1" stopTime="0.00" timeLoss="27.95" rerouteNo="0" devices="tripinfo_veh_1903 routing_veh_1903" vType="MOTORCYCLE" speedFactor="1.23" vaporized=""/>
    <tripinfo id="veh_2111" depart="26.00" departLane="edge_N_in_0" departPos="2.60" departSpeed="0.00" departDelay="0.00" arrival="63.00" arrivalLane="edge_S_out_0" arrivalPos="189.60" arrivalSpeed="11.21" duration="37.00" routeLength="397.40" waitingTime="0.00" waitingCount="0" stopTime="0.00" timeLoss="4.28" rerouteNo="0" devices="tripinfo_veh_2111 routing_veh_2111" vType="MOTORCYCLE" speedFactor="0.88" vaporized=""/>
    <tripinfo id="veh_2037" depart="28.00" departLane="edge_N_in_0" departPos="5.10" departSpeed="0.00" departDelay="1.00" arrival="63.00" arrivalLane="edge_W_out_0" arrivalPos="189.60" arrivalSpeed="12.69" duration="35.00" routeLength="383.13" waitingTime="0.00" waitingCount="0" stopTime="0.00" timeLoss="6.81" rerouteNo="0" devices="tripinfo_veh_2037 routing_veh_2037" vType="CAR" speedFactor="1.17" vaporized=""/>
    <tripinfo id="veh_136" depart="23.00" departLane="edge_S_in_0" departPos="2.60" departSpeed="0.00" departDelay="9.00" arrival="64.00" arrivalLane="edge_N_out_0" arrivalPos="189.60" arrivalSpeed="12.89" duration="41.00" routeLength="397.40" waitingTime="0.00" waitingCount="0" stopTime="0.00" timeLoss="10.22" rerouteNo="0" devices="tripinfo_veh_136 routing_veh_136" vType="MOTORCYCLE" speedFactor="0.95" vaporized=""/>
    <tripinfo id="veh_2074" depart="15.00" departLane="edge_S_in_0" departPos="5.10" departSpeed="0.00" departDelay="5.00" arrival="65.00" arrivalLane="edge_W_out_1" arrivalPos="189.60" arrivalSpeed="12.26" duration="50.00" routeLength="393.45" waitingTime="8.00" waitingCount="2" stopTime="0.00" timeLoss="19.66" rerouteNo="0" devices="tripinfo_veh_2074 routing_veh_2074" vType="CAR" speedFactor="0.98" vaporized=""/>
    <tripinfo id="veh_1906" depart="26.00" departLane="edge_S_in_0" departPos="5.10" departSpeed="0.00" departDelay="10.00" arrival="68.00" arrivalLane="edge_E_out_0" arrivalPos="189.60" arrivalSpeed="11.30" duration="42.00" routeLength="383.13" waitingTime="0.00" waitingCount="0" stopTime="0.00" timeLoss="8.44" rerouteNo="0" devices="tripinfo_veh_1906 routing_veh_1906" vType="CAR" speedFactor="0.86" vaporized=""/>
    <tripinfo id="veh_5" depart="12.00" departLane="edge_S_in_0" departPos="5.10" departSpeed="0.00" departDelay="3.00" arrival="70.00" arrivalLane="edge_N_out_0" arrivalPos="189.60" arrivalSpeed="10.93" duration="58.00" routeLength="394.90" waitingTime="5.00" waitingCount="1" stopTime="0.00" timeLoss="22.85" rerouteNo="0" devices="tripinfo_veh_5 routing_veh_5" vType="CAR" speedFactor="0.83" vaporized=""/>
    <tripinfo id="veh_1740" depart="23.00" departLane="edge_E_in_0" departPos="5.10" departSpeed="0.00" departDelay="0.00" arrival="71.00" arrivalLane="edge_N_out_0" arrivalPos="189.60" arrivalSpeed="12.91" duration="48.00" routeLength="383.13" waitingTime="10.00" waitingCount="1" stopTime="0.00" timeLoss="19.75" rerouteNo="0" devices="tripinfo_veh_1740 routing_veh_1740" vType="CAR" speedFactor="1.04" vaporized=""/>
    <tripinfo id="veh_2362" depart="24.00" departLane="edge_W_in_0" departPos="5.10" departSpeed="0.00" departDelay="0.00" arrival="71.00" arrivalLane="edge_E_out_0" arrivalPos="189.60" arrivalSpeed="12.55" duration="47.00" routeLength="394.90" waitingTime="9.00" waitingCount="1" stopTime="0.00" timeLoss="18.09" rerouteNo="0" devices="tripinfo_veh_2362 routing_veh_2362" vType="CAR" speedFactor="1.06" vaporized=""/>
    <tripinfo id="veh_1962" depart="26.00" departLane="edge_E_in_0" departPos="2.60" departSpeed="0.00" departDelay="0.00" arrival="74.00" arrivalLane="edge_W_out_1" arrivalPos="189.60" arrivalSpeed="11.93" duration="48.00" routeLength="397.40" waitingTime="6.00" waitingCount="1" stopTime="0.00" timeLoss="18.49" rerouteNo="0" devices="tripinfo_veh_1962 routing_veh_1962" vType="MOTORCYCLE" speedFactor="0.98" vaporized=""/>
    <tripinfo id="veh_1999" depart="35.00" departLane="edge_E_in_0" departPos="5.10" departSpeed="0.00" departDelay="3.00" arrival="74.00" arrivalLane="edge_W_out_0" arrivalPos="189.60" arrivalSpeed="12.68" duration="39.00" routeLength="394.90" waitingTime="0.00" waitingCount="0" stopTime="0.00" timeLoss="8.08" rerouteNo="0" devices="tripinfo_veh_1999 routing_veh_1999" vType="CAR" speedFactor="0.95" vaporized=""/>
    <tripinfo id="veh_865" depart="26.00" departLane="edge_W_in_0" departPos="5.10" departSpeed="0.00" departDelay="1.00" arrival="75.00" arrivalLane="edge_S_out_0" arrivalPos="189.60" arrivalSpeed="11.39" duration="49.00" routeLength="383.13" waitingTime="7.00" waitingCount="1" stopTime="0.00" timeLoss="16.14" rerouteNo="0" devices="tripinfo_veh_865 routing_veh_865" vType="CAR" speedFactor="0.87" vaporized=""/>
    <tripinfo id="veh_1821" depart="4.00" departLane="edge_N_in_0" departPos="5.10" departSpeed="0.00" departDelay="0.00" arrival="76.00" arrivalLane="edge_E_out_1" arrivalPos="189.60" arrivalSpeed="10.09" duration="72.00" routeLength="393.45" waitingTime="23.00" waitingCount="2" stopTime="0.00" timeLoss="33.22" rerouteNo="0" devices="tripinfo_veh_1821 routing_veh_1821" vType="CAR" speedFactor="0.76" vaporized=""/>
    <tripinfo id="veh_2420" depart="20.00" departLane="edge_W_in_0" departPos="5.10" departSpeed="0.00" departDelay="1.00" arrival="76.00" arrivalLane="edge_E_out_0" arrivalPos="189.60" arrivalSpeed="12.81" duration="56.00" routeLength="394.90" waitingTime="12.00" waitingCount="1" stopTime="0.00" timeLoss="24.75" rerouteNo="0" devices="tripinfo_veh_2420 routing_veh_2420" vType="CAR" speedFactor="0.93" vaporized=""/>
    <tripinfo id="veh_751" depart="32.00" departLane="edge_E_in_0" departPos="5.10" departSpeed="0.00" departDelay="0.00" arrival="77.00" arrivalLane="edge_W_out_1" arrivalPos="189.60" arrivalSpeed="11.68" duration="45.00" routeLength="394.90" waitingTime="0.00" waitingCount="0" stopTime="0.00" timeLoss="13.34" rerouteNo="0" devices="tripinfo_veh_751 routing_veh_751" vType="CAR" speedFactor="0.92" vaporized=""/>
    <tripinfo id="veh_197" depart="29.00" departLane="edge_W_in_0" departPos="2.60" departSpeed="0.00" departDelay="1.00" arrival="78.00" arrivalLane="edge_S_out_0" arrivalPos="189.60" arrivalSpeed="12.43" duration="49.00" routeLength="385.63" waitingTime="6.00" waitingCount="1" stopTime="0.00" timeLoss="17.18" rerouteNo="0" devices="tripinfo_veh_197 routing_veh_197" vType="MOTORCYCLE" speedFactor="0.92" vaporized=""/>
    <tripinfo id="veh_547" depart="33.00" departLane="edge_W_in_0" departPos="5.10" departSpeed="0.00" departDelay="0.00" arrival="78.00" arrivalLane="edge_E_out_1" arrivalPos="189.60" arrivalSpeed="13.88" duration="45.00" routeLength="394.90" waitingTime="2.00" waitingCount="1" stopTime="0.00" timeLoss="15.65" rerouteNo="0" devices="tripinfo_veh_547 routing_veh_547" vType="CAR" speedFactor="1.04" vaporized=""/>
    <tripinfo id="veh_1972" depart="41.00" departLane="edge_W_in_0" departPos="5.10" departSpeed="0.00" departDelay="1.00" arrival="79.00" arrivalLane="edge_S_out_0" arrivalPos="189.60" arrivalSpeed="12.89" duration="38.00" routeLength="383.13" waitingTime="0.00" waitingCount="0" stopTime="0.00" timeLoss="9.56" rerouteNo="0" devices="tripinfo_veh_1972 routing_veh_1972" vType="CAR" speedFactor="1.05" vaporized=""/>
    <tripinfo id="veh_2496" depart="45.00" departLane="edge_E_in_0" departPos="5.10" departSpeed="0.00" departDelay="1.00" arrival="79.00" arrivalLane="edge_W_out_1" arrivalPos="189.60" arrivalSpeed="12.16" duration="34.00" routeLength="394.90" waitingTime="0.00" waitingCount="0" stopTime="0.00" timeLoss="4.76" rerouteNo="0" devices="tripinfo_veh_2496 routing_veh_2496" vType="CAR" speedFactor="0.98" vaporized=""/>
    <tripinfo id="veh_846" depart="37.00" departLane="edge_E_in_0" departPos="2.60" departSpeed="0.00" departDelay="2.00" arrival="80.00" arrivalLane="edge_N_out_0" arrivalPos="189.60" arrivalSpeed="10.07" duration="43.00" routeLength="385.63" waitingTime="0.00" waitingCount="0" stopTime="0.00" timeLoss="7.60" rerouteNo="0" devices="tripinfo_veh_846 routing_veh_846" vType="MOTORCYCLE" speedFactor="0.83" vaporized=""/>
    <tripinfo id="veh_578" depart="44.00" departLane="edge_W_in_0" departPos="5.10" departSpeed="0.00" departDelay="1.00" arrival="81.00" arrivalLane="edge_E_out_0" arrivalPos="189.60" arrivalSpeed="12.23" duration="37.00" routeLength="394.90" waitingTime="0.00" waitingCount="0" stopTime="0.00" timeLoss="6.46" rerouteNo="0" devices="tripinfo_veh_578 routing_veh_578" vType="CAR" speedFactor="0.95" vaporized=""/>
    <tripinfo id="veh_1527" depart="47.00" departLane="edge_E_in_0" departPos="2.60" departSpeed="0.00" departDelay="1.00" arrival="81.00" arrivalLane="edge_W_out_1" arrivalPos="189.60" arrivalSpeed="13.83" duration="34.00" routeLength="397.40" waitingTime="0.00" waitingCount="0" stopTime="0.00" timeLoss="5.20" rerouteNo="0" devices="tripinfo_veh_1527 routing_veh_1527" vType="MOTORCYCLE" speedFactor="1.00" vaporized=""/>
    <tripinfo id="veh_1730" depart="43.00" departLane="edge_E_in_0" departPos="2.60" departSpeed="0.00" departDelay="0.00" arrival="83.00" arrivalLane="edge_W_out_0" arrivalPos="189.60" arrivalSpeed="10.05" duration="40.00" routeLength="397.40" waitingTime="0.00" waitingCount="0" stopTime="0.00" timeLoss="4.49" rerouteNo="0" devices="tripinfo_veh_1730 routing_veh_1730" vType="MOTORCYCLE" speedFactor="0.83" vaporized=""/>
    <tripinfo id="veh_1588" depart="29.00" departLane="edge_S_in_0" departPos="5.10" departSpeed="0.00" departDelay="7.00" arrival="86.00" arrivalLane="edge_E_out_0" arrivalPos="189.60" arrivalSpeed="12.47" duration="57.00" routeLength="383.13" waitingTime="13.00" waitingCount="1" stopTime="0.00" timeLoss="27.85" rerouteNo="0" devices="tripinfo_veh_1588 routing_veh_1588" vType="CAR" speedFactor="0.99" vaporized=""/>
    <tripinfo id="veh_595" depart="37.00" departLane="edge_W_in_0" departPos="12.10" departSpeed="0.00" departDelay="3.00" arrival="89.00" arrivalLane="edge_N_out_1" arrivalPos="189.60" arrivalSpeed="10.92" duration="52.00" routeLength="386.45" waitingTime="4.00" waitingCount="1" stopTime="0.00" timeLoss="16.75" rerouteNo="0" devices="tripinfo_veh_595 routing_veh_595" vType="TRUCK" speedFactor="0.97" vaporized=""/>
    <tripinfo id="veh_1272" depart="32.00" departLane="edge_N_in_0" departPos="12.10" departSpeed="0.00" departDelay="1.00" arrival="91.00" arrivalLane="edge_W_out_0" arrivalPos="189.60" arrivalSpeed="10.47" duration="59.00" routeLength="376.13" waitingTime="12.00" waitingCount="1" stopTime="0.00" timeLoss="24.08" rerouteNo="0" devices="tripinfo_veh_1272 routing_veh_1272" vType="TRUCK" speedFactor="1.02" vaporized=""/>
    <tripinfo id="veh_544" depart="36.00" departLane="edge_S_in_0" departPos="12.10" departSpeed="0.00" departDelay="4.00" arrival="93.00" arrivalLane="edge_N_out_0" arrivalPos="189.60" arrivalSpeed="11.04" duration="57.00" routeLength="387.90" waitingTime="9.00" waitingCount="1" stopTime="0.00" timeLoss="21.81" rerouteNo="0" devices="tripinfo_veh_544 routing_veh_544" vType="TRUCK" speedFactor="1.01" vaporized=""/>
    <tripinfo id="veh_1974" depart="45.00" departLane="edge_N_in_0" departPos="2.60" departSpeed="0.00" departDelay="0.00" arrival="93.00" arrivalLane="edge_W_out_0" arrivalPos="189.60" arrivalSpeed="12.06" duration="48.00" routeLength="385.63" waitingTime="5.00" waitingCount="1" stopTime="0.00" timeLoss="18.46" rerouteNo="0" devices="tripinfo_veh_1974 routing_veh_1974" vType="MOTORCYCLE" speedFactor="0.97" vaporized=""/>
    <tripinfo id="veh_2389" depart="15.00" departLane="edge_N_in_0" departPos="2.60" departSpeed="0.00" departDelay="0.00" arrival="95.00" arrivalLane="edge_E_out_1" arrivalPos="189.60" arrivalSpeed="14.09" duration="80.00" routeLength="395.95" waitingTime="36.00" waitingCount="4" stopTime="0.00" timeLoss="52.77" rerouteNo="0" devices="tripinfo_veh_2389 routing_veh_2389" vType="MOTORCYCLE" speedFactor="1.08" vaporized=""/>
    <tripinfo id="veh_2303" depart="48.00" departLane="edge_N_in_0" departPos="5.10" departSpeed="0.00" departDelay="3.00" arrival="95.00" arrivalLane="edge_W_out_0" arrivalPos="189.60" arrivalSpeed="12.68" duration="47.00" routeLength="383.13" waitingTime="4.00" waitingCount="1" stopTime="0.00" timeLoss="17.59" rerouteNo="0" devices="tripinfo_veh_2303 routing_veh_2303" vType="CAR" speedFactor="1.01" vaporized=""/>
    <tripinfo id="veh_195" depart="42.00" departLane="edge_S_in_0" departPos="5.10" departSpeed="0.00" departDelay="6.00" arrival="96.00" arrivalLane="edge_N_out_0" arrivalPos="189.60" arrivalSpeed="12.13" duration="54.00" routeLength="394.90" waitingTime="8.00" waitingCount="1" stopTime="0.00" timeLoss="22.15" rerouteNo="0" devices="tripinfo_veh_195 routing_veh_195" vType="CAR" speedFactor="0.92" vaporized=""/>
    <tripinfo id="veh_2312" depart="47.00" departLane="edge_S_in_0" departPos="5.10" departSpeed="0.00" departDelay="8.00" arrival="100.00" arrivalLane="edge_E_out_0" arrivalPos="189.60" arrivalSpeed="10.12" duration="53.00" routeLength="383.13" waitingTime="3.00" waitingCount="2" stopTime="0.00" timeLoss="15.52" rerouteNo="0" devices="tripinfo_veh_2312 routing_veh_2312" vType="CAR" speedFactor="0.76" vaporized=""/>
    <tripinfo id="veh_2061" depart="20.00" departLane="edge_S_in_0" departPos="12.10" departSpeed="0.00" departDelay="7.00" arrival="102.00" arrivalLane="edge_W_out_1" arrivalPos="189.60" arrivalSpeed="11.00" duration="82.00" routeLength="386.45" waitingTime="25.00" waitingCount="3" stopTime="0.00" timeLoss="46.66" rerouteNo="0" devices="tripinfo_veh_2061 routing_veh_2061" vType="TRUCK" speedFactor="0.97" vaporized=""/>
    <tripinfo id="veh_268" depart="40.00" departLane="edge_W_in_0" departPos="2.60" departSpeed="0.00" departDelay="3.00" arrival="102.00" arrivalLane="edge_N_out_1" arrivalPos="189.60" arrivalSpeed="14.76" duration="62.00" routeLength="395.95" waitingTime="13.00" waitingCount="3" stopTime="0.00" timeLoss="34.86" rerouteNo="0" devices="tripinfo_veh_268 routing_veh_268" vType="MOTORCYCLE" speedFactor="1.09" vaporized=""/>
    <tripinfo id="veh_611" depart="58.00" departLane="edge_W_in_0" departPos="5.10" departSpeed="0.00" departDelay="0.00" arrival="102.00" arrivalLane="edge_E_out_0" arrivalPos="189.60" arrivalSpeed="12.88" duration="44.00" routeLength="394.90" waitingTime="5.00" waitingCount="1" stopTime="0.00" timeLoss="14.78" rerouteNo="0" devices="tripinfo_veh_611 routing_veh_611" vType="CAR" speedFactor="1.02" vaporized=""/>
    <tripinfo id="veh_1583" depart="50.00" departLane="edge_E_in_0" departPos="5.10" departSpeed="0.00" departDelay="3.00" arrival="103.00" arrivalLane="edge_N_out_0" arrivalPos="189.60" arrivalSpeed="11.51" duration="53.00" routeLength="383.13" waitingTime="10.00" waitingCount="1" stopTime="0.00" timeLoss="18.58" rerouteNo="0" devices="tripinfo_veh_1583 routing_veh_1583" vType="CAR" speedFactor="0.83" vaporized=""/>
    <tripinfo id="veh_1042" depart="61.00" departLane="edge_W_in_0" departPos="5.10" departSpeed="0.00" departDelay="3.00" arrival="103.00" arrivalLane="edge_S_out_0" arrivalPos="189.60" arrivalSpeed="13.38" duration="42.00" routeLength="383.13" waitingTime="2.00" waitingCount="1" stopTime="0.00" timeLoss="13.08" rerouteNo="0" devices="tripinfo_veh_1042 routing_veh_1042" vType="CAR" speedFactor="1.01" vaporized=""/>
    <tripinfo id="veh_697" depart="52.00" departLane="edge_E_in_0" departPos="2.60" departSpeed="0.00" departDelay="3.00" arrival="105.00" arrivalLane="edge_N_out_0" arrivalPos="189.60" arrivalSpeed="13.63" duration="53.00" routeLength="385.63" waitingTime="10.00" waitingCount="1" stopTime="0.00" timeLoss="25.34" rerouteNo="0" devices="tripinfo_veh_697 routing_veh_697" vType="MOTORCYCLE" speedFactor="1.07" vaporized=""/>
    <tripinfo id="veh_44" depart="58.00" departLane="edge_E_in_0" departPos="5.10" departSpeed="0.00" departDelay="3.00" arrival="105.00" arrivalLane="edge_S_out_1" arrivalPos="189.60" arrivalSpeed="12.56" duration="47.00" routeLength="393.45" waitingTime="8.00" waitingCount="2" stopTime="0.00" timeLoss="16.71" rerouteNo="0" devices="tripinfo_veh_44 routing_veh_44" vType="CAR" speedFactor="0.96" vaporized=""/>
    <tripinfo id="veh_1277" depart="55.00" departLane="edge_E_in_0" departPos="5.10" departSpeed="0.00" departDelay="6.00" arrival="106.00" arrivalLane="edge_N_out_0" arrivalPos="189.60" arrivalSpeed="12.30" duration="51.00" routeLength="383.13" waitingTime="9.00" waitingCount="1" stopTime="0.00" timeLoss="21.55" rerouteNo="0" devices="tripinfo_veh_1277 routing_veh_1277" vType="CAR" speedFactor="0.97" vaporized=""/>
    <tripinfo id="veh_2359" depart="49.00" departLane="edge_W_in_0" departPos="5.10" departSpeed="0.00" departDelay="0.00" arrival="106.00" arrivalLane="edge_N_out_1" arrivalPos="189.60" arrivalSpeed="13.10" duration="57.00" routeLength="393.45" waitingTime="9.00" waitingCount="2" stopTime="0.00" timeLoss="27.32" rerouteNo="0" devices="tripinfo_veh_2359 routing_veh_2359" vType="CAR" speedFactor="1.02" vaporized=""/>
    <tripinfo id="veh_2078" depart="67.00" departLane="edge_W_in_0" departPos="5.10" departSpeed="0.00" departDelay="7.00" arrival="106.00" arrivalLane="edge_S_out_0" arrivalPos="189.60" arrivalSpeed="13.35" duration="39.00" routeLength="383.13" waitingTime="0.00" waitingCount="0" stopTime="0.00" timeLoss="9.83" rerouteNo="0" devices="tripinfo_veh_2078 routing_veh_2078" vType="CAR" speedFactor="0.99" vaporized=""/>
    <tripinfo id="veh_1226" depart="60.00" departLane="edge_E_in_0" departPos="5.10" departSpeed="0.00" departDelay="4.00" arrival="108.00" arrivalLane="edge_N_out_0" arrivalPos="189.60" arrivalSpeed="12.56" duration="48.00" routeLength="383.13" waitingTime="7.00" waitingCount="1" stopTime="0.00" timeLoss="19.41" rerouteNo="0" devices="tripinfo_veh_1226 routing_veh_1226" vType="CAR" speedFactor="0.99" vaporized=""/>
    <tripinfo id="veh_42" depart="64.00" departLane="edge_W_in_0" departPos="5.10" departSpeed="0.00" departDelay="4.00" arrival="108.00" arrivalLane="edge_N_out_1" arrivalPos="189.60" arrivalSpeed="12.78" duration="44.00" routeLength="393.45" waitingTime="3.00" waitingCount="1" stopTime="0.00" timeLoss="14.25" rerouteNo="0" devices="tripinfo_veh_42 routing_veh_42" vType="CAR" speedFactor="1.08" vaporized=""/>
    <tripinfo id="veh_951" depart="73.00" departLane="edge_W_in_0" departPos="5.10" departSpeed="0.00" departDelay="1.00" arrival="111.00" arrivalLane="edge_E_out_1" arrivalPos="189.60" arrivalSpeed="11.51" duration="38.00" routeLength="394.90" waitingTime="0.00" waitingCount="0" stopTime="0.00" timeLoss="6.17" rerouteNo="0" devices="tripinfo_veh_951 routing_veh_951" vType="CAR" speedFactor="0.92" vaporized=""/>
    <tripinfo id="veh_588" depart="62.00" departLane="edge_E_in_0" departPos="2.60" departSpeed="0.00" departDelay="5.00" arrival="113.00" arrivalLane="edge_S_out_1" arrivalPos="189.60" arrivalSpeed="13.21" duration="51.00" routeLength="395.95" waitingTime="5.00" waitingCount="2" stopTime="0.00" timeLoss="21.48" rerouteNo="0" devices="tripinfo_veh_588 routing_veh_588" vType="MOTORCYCLE" speedFactor="0.98" vaporized=""/>
    <tripinfo id="veh_2196" depart="68.00" departLane="edge_E_in_0" departPos="5.10" departSpeed="0.00" departDelay="3.00" arrival="113.00" arrivalLane="edge_N_out_0" arrivalPos="189.60" arrivalSpeed="11.18" duration="45.00" routeLength="383.13" waitingTime="0.00" waitingCount="0" stopTime="0.00" timeLoss="11.51" rerouteNo="0" devices="tripinfo_veh_2196 routing_veh_2196" vType="CAR" speedFactor="0.85" vaporized=""/>
    <tripinfo id="veh_1681" depart="70.00" departLane="edge_W_in_0" departPos="5.10" departSpeed="0.00" departDelay="8.00" arrival="115.00" arrivalLane="edge_E_out_0" arrivalPos="189.60" arrivalSpeed="8.61" duration="45.00" routeLength="394.90" waitingTime="0.00" waitingCount="0" stopTime="0.00" timeLoss="4.70" rerouteNo="0" devices="tripinfo_veh_1681 routing_veh_1681" vType="CAR" speedFactor="0.71" vaporized=""/>
    <tripinfo id="veh_769" depart="32.00" departLane="edge_S_in_0" departPos="5.10" departSpeed="0.00" departDelay="2.00" arrival="116.00" arrivalLane="edge_N_out_1" arrivalPos="189.60" arrivalSpeed="13.00" duration="84.00" routeLength="394.90" waitingTime="32.00" waitingCount="4" stopTime="0.00" timeLoss="55.26" rerouteNo="0" devices="tripinfo_veh_769 routing_veh_769" vType="CAR" speedFactor="1.10" vaporized=""/>
    <tripinfo id="veh_2346" depart="36.00" departLane="edge_N_in_0" departPos="5.10" departSpeed="0.00" departDelay="3.00" arrival="116.00" arrivalLane="edge_S_out_0" arrivalPos="189.60" arrivalSpeed="13.39" duration="80.00" routeLength="394.90" waitingTime="37.00" waitingCount="2" stopTime="0.00" timeLoss="50.93" rerouteNo="0" devices="tripinfo_veh_2346 routing_veh_2346" vType="CAR" speedFactor="1.06" vaporized=""/>
    <tripinfo id="veh_1214" depart="54.00" departLane="edge_S_in_0" departPos="5.10" departSpeed="0.00" departDelay="13.00" arrival="116.00" arrivalLane="edge_E_out_1" arrivalPos="189.60" arrivalSpeed="13.42" duration="62.00" routeLength="383.13" waitingTime="16.00" waitingCount="2" stopTime="0.00" timeLoss="33.31" rerouteNo="0" devices="tripinfo_veh_1214 routing_veh_1214" vType="CAR" speedFactor="0.99" vaporized=""/>
    <tripinfo id="veh_1073" depart="40.00" departLane="edge_S_in_0" departPos="5.10" departSpeed="0.00" departDelay="8.00" arrival="120.00" arrivalLane="edge_N_out_0" arrivalPos="189.60" arrivalSpeed="11.63" duration="80.00" routeLength="394.90" waitingTime="26.00" waitingCount="3" stopTime="0.00" timeLoss="47.09" rerouteNo="0" devices="tripinfo_veh_1073 routing_veh_1073" vType="CAR" speedFactor="0.88" vaporized=""/>
    <tripinfo id="veh_2479" depart="54.00" departLane="edge_N_in_0" departPos="5.10" departSpeed="0.00" departDelay="2.00" arrival="120.00" arrivalLane="edge_S_out_1" arrivalPos="189.60" arrivalSpeed="13.88" duration="66.00" routeLength="394.90" waitingTime="17.00" waitingCount="2" stopTime="0.00" timeLoss="37.46" rerouteNo="0" devices="tripinfo_veh_2479 routing_veh_2479" vType="CAR" speedFactor="1.10" vaporized=""/>