<?xml version="1.0" encoding="UTF-8"?>

<!-- generated on 2025-04-22 13:17:53 by Eclipse SUMO GUI Version 1.22.0
<sumoConfiguration xmlns:xsi="http://www.w3.org/2001/XMLSchema-instance" xsi:noNamespaceSchemaLocation="http://sumo.dlr.de/xsd/sumoConfiguration.xsd">

    <input>
        <net-file value="my_intersection.net.xml"/>
        <route-files value="random_traffic.rou.xml"/>
        <additional-files value="tls_program.add.xml"/>
    </input>

    <output>
        <tripinfo-output value="outputs\fixed_time_tripinfo.xml"/>
    </output>

    <time>
        <begin value="0"/>
        <end value="3600"/>
    </time>

    <processing>
        <ignore-route-errors value="true"/>
        <time-to-teleport value="-1"/>
    </processing>

    <report>
        <duration-log.disable value="true"/>
        <no-step-log value="true"/>
    </report>

    <random_number>
        <seed value="42"/>
    </random_number>

    <gui_only>
        <start value="true"/>
        <delay value="150"/>
        <tracker-interval value="0.1"/>
    </gui_only>

</sumoConfiguration>
-->

<tripinfos xmlns:xsi="http://www.w3.org/2001/XMLSchema-instance" xsi:noNamespaceSchemaLocation="http://sumo.dlr.de/xsd/tripinfo_file.xsd">
    <tripinfo id="veh_192" depart="4.00" departLane="edge_N_in_0" departPos="5.10" departSpeed="0.00" departDelay="0.00" arrival="37.00" arrivalLane="edge_S_out_0" arrivalPos="189.60" arrivalSpeed="13.73" duration="33.00" routeLength="394.90" waitingTime="0.00" waitingCount="0" stopTime="0.00" timeLoss="4.14" rerouteNo="0" devices="tripinfo_veh_192 routing_veh_192" vType="CAR" speedFactor="1.07" vaporized=""/>
    <tripinfo id="veh_593" depart="12.00" departLane="edge_N_in_0" departPos="5.10" departSpeed="0.00" departDelay="0.00" arrival="47.00" arrivalLane="edge_E_out_1" arrivalPos="189.60" arrivalSpeed="13.61" duration="35.00" routeLength="393.45" waitingTime="0.00" waitingCount="0" stopTime="0.00" timeLoss="5.87" rerouteNo="0" devices="tripinfo_veh_593 routing_veh_593" vType="CAR" speedFactor="1.16" vaporized=""/>
    <tripinfo id="veh_675" depart="17.00" departLane="edge_N_in_0" departPos="5.10" departSpeed="0.00" departDelay="0.00" arrival="52.00" arrivalLane="edge_E_out_1" arrivalPos="189.60" arrivalSpeed="13.48" duration="35.00" routeLength="393.45" waitingTime="0.00" waitingCount="0" stopTime="0.00" timeLoss="5.79" rerouteNo="0" devices="tripinfo_veh_675 routing_veh_675" vType="CAR" speedFactor="1.08" vaporized=""/>
    <tripinfo id="veh_170" depart="1.00" departLane="edge_W_in_0" departPos="12.10" departSpeed="0.00" departDelay="0.00" arrival="68.00" arrivalLane="edge_S_out_0" arrivalPos="189.60" arrivalSpeed="10.45" duration="67.00" routeLength="376.13" waitingTime="20.00" waitingCount="1" stopTime="0.00" timeLoss="31.99" rerouteNo="0" devices="tripinfo_veh_170 routing_veh_170" vType="TRUCK" speedFactor="0.97" vaporized=""/>
    <tripinfo id="veh_645" depart="12.00" departLane="edge_W_in_0" departPos="12.10" departSpeed="0.00" departDelay="0.00" arrival="69.00" arrivalLane="edge_E_out_0" arrivalPos="189.60" arrivalSpeed="10.88" duration="57.00" routeLength="387.90" waitingTime="9.00" waitingCount="1" stopTime="0.00" timeLoss="21.25" rerouteNo="0" devices="tripinfo_veh_645 routing_veh_645" vType="TRUCK" speedFactor="0.94" vaporized=""/>
    <tripinfo id="veh_111" depart="20.00" departLane="edge_W_in_0" departPos="5.10" departSpeed="0.00" departDelay="1.00" arrival="69.00" arrivalLane="edge_N_out_1" arrivalPos="189.60" arrivalSpeed="13.15" duration="49.00" routeLength="393.45" waitingTime="6.00" waitingCount="1" stopTime="0.00" timeLoss="19.31" rerouteNo="0" devices="tripinfo_veh_111 routing_veh_111" vType="CAR" speedFactor="1.13" vaporized=""/>
    <tripinfo id="veh_646" depart="15.00" departLane="edge_W_in_0" departPos="2.60" departSpeed="0.00" departDelay="0.00" arrival="70.00" arrivalLane="edge_S_out_0" arrivalPos="189.60" arrivalSpeed="12.36" duration="55.00" routeLength="385.63" waitingTime="9.00" waitingCount="1" stopTime="0.00" timeLoss="23.93" rerouteNo="0" devices="tripinfo_veh_646 routing_veh_646" vType="MOTORCYCLE" speedFactor="0.93" vaporized=""/>
    <tripinfo id="veh_585" depart="18.00" departLane="edge_W_in_0" departPos="2.60" departSpeed="0.00" departDelay="0.00" arrival="71.00" arrivalLane="edge_S_out_0" arrivalPos="189.60" arrivalSpeed="14.05" duration="53.00" routeLength="385.63" waitingTime="8.00" waitingCount="1" stopTime="0.00" timeLoss="25.67" rerouteNo="0" devices="tripinfo_veh_585 routing_veh_585" vType="MOTORCYCLE" speedFactor="1.03" vaporized=""/>
    <tripinfo id="veh_671" depart="24.00" departLane="edge_E_in_0" departPos="5.10" departSpeed="0.00" departDelay="0.00" arrival="72.00" arrivalLane="edge_S_out_1" arrivalPos="189.60" arrivalSpeed="10.67" duration="48.00" routeLength="393.45" waitingTime="4.00" waitingCount="1" stopTime="0.00" timeLoss="13.43" rerouteNo="0" devices="tripinfo_veh_671 routing_veh_671" vType="CAR" speedFactor="0.84" vaporized=""/>
    <tripinfo id="veh_545" depart="45.00" departLane="edge_E_in_0" departPos="5.10" departSpeed="0.00" departDelay="0.00" arrival="80.00" arrivalLane="edge_N_out_0" arrivalPos="189.60" arrivalSpeed="12.96" duration="35.00" routeLength="383.13" waitingTime="0.00" waitingCount="0" stopTime="0.00" timeLoss="6.13" rerouteNo="0" devices="tripinfo_veh_545 routing_veh_545" vType="CAR" speedFactor="1.13" vaporized=""/>
    <tripinfo id="veh_377" depart="64.00" departLane="edge_W_in_0" departPos="5.10" departSpeed="0.00" departDelay="0.00" arrival="98.00" arrivalLane="edge_S_out_0" arrivalPos="189.60" arrivalSpeed="12.45" duration="34.00" routeLength="383.13" waitingTime="0.00" waitingCount="0" stopTime="0.00" timeLoss="5.20" rerouteNo="0" devices="tripinfo_veh_377 routing_veh_377" vType="CAR" speedFactor="1.24" vaporized=""/>
    <tripinfo id="veh_649" depart="66.00" departLane="edge_E_in_0" departPos="2.60" departSpeed="0.00" departDelay="0.00" arrival="103.00" arrivalLane="edge_W_out_0" arrivalPos="189.60" arrivalSpeed="11.84" duration="37.00" routeLength="397.40" waitingTime="0.00" waitingCount="0" stopTime="0.00" timeLoss="4.14" rerouteNo="0" devices="tripinfo_veh_649 routing_veh_649" vType="MOTORCYCLE" speedFactor="0.87" vaporized=""/>
    <tripinfo id="veh_272" depart="71.00" departLane="edge_W_in_0" departPos="2.60" departSpeed="0.00" departDelay="0.00" arrival="104.00" arrivalLane="edge_N_out_1" arrivalPos="189.60" arrivalSpeed="14.15" duration="33.00" routeLength="395.95" waitingTime="0.00" waitingCount="0" stopTime="0.00" timeLoss="4.75" rerouteNo="0" devices="tripinfo_veh_272 routing_veh_272" vType="MOTORCYCLE" speedFactor="1.05" vaporized=""/>
    <tripinfo id="veh_138" depart="33.00" departLane="edge_S_in_0" departPos="2.60" departSpeed="0.00" departDelay="0.00" arrival="107.00" arrivalLane="edge_E_out_0" arrivalPos="189.60" arrivalSpeed="13.81" duration="74.00" routeLength="385.63" waitingTime="38.00" waitingCount="1" stopTime="0.00" timeLoss="45.54" rerouteNo="0" devices="tripinfo_veh_138 routing_veh_138" vType="MOTORCYCLE" speedFactor="1.00" vaporized=""/>
    <tripinfo id="veh_348" depart="35.00" departLane="edge_N_in_0" departPos="5.10" departSpeed="0.00" departDelay="0.00" arrival="108.00" arrivalLane="edge_S_out_1" arrivalPos="189.60" arrivalSpeed="12.82" duration="73.00" routeLength="394.90" waitingTime="34.00" waitingCount="1" stopTime="0.00" timeLoss="44.02" rerouteNo="0" devices="tripinfo_veh_348 routing_veh_348" vType="CAR" speedFactor="0.99" vaporized=""/>
    <tripinfo id="veh_465" depart="37.00" departLane="edge_S_in_0" departPos="2.60" departSpeed="0.00" departDelay="0.00" arrival="109.00" arrivalLane="edge_E_out_0" arrivalPos="189.60" arrivalSpeed="14.98" duration="72.00" routeLength="385.63" waitingTime="35.00" waitingCount="1" stopTime="0.00" timeLoss="46.79" rerouteNo="0" devices="tripinfo_veh_465 routing_veh_465" vType="MOTORCYCLE" speedFactor="1.16" vaporized=""/>
    <tripinfo id="veh_499" depart="38.00" departLane="edge_N_in_0" departPos="5.10" departSpeed="0.00" departDelay="1.00" arrival="111.00" arrivalLane="edge_S_out_1" arrivalPos="189.60" arrivalSpeed="12.54" duration="73.00" routeLength="394.90" waitingTime="33.00" waitingCount="1" stopTime="0.00" timeLoss="42.23" rerouteNo="0" devices="tripinfo_veh_499 routing_veh_499" vType="CAR" speedFactor="0.94" vaporized=""/>
    <tripinfo id="veh_135" depart="21.00" departLane="edge_N_in_0" departPos="12.10" departSpeed="0.00" departDelay="2.00" arrival="114.00" arrivalLane="edge_S_out_0" arrivalPos="189.60" arrivalSpeed="10.39" duration="93.00" routeLength="387.90" waitingTime="46.00" waitingCount="1" stopTime="0.00" timeLoss="57.33" rerouteNo="0" devices="tripinfo_veh_135 routing_veh_135" vType="TRUCK" speedFactor="0.94" vaporized=""/>
    <tripinfo id="veh_627" depart="52.00" departLane="edge_N_in_0" departPos="5.10" departSpeed="0.00" departDelay="0.00" arrival="116.00" arrivalLane="edge_E_out_1" arrivalPos="189.60" arrivalSpeed="12.13" duration="64.00" routeLength="393.45" waitingTime="19.00" waitingCount="1" stopTime="0.00" timeLoss="30.00" rerouteNo="0" devices="tripinfo_veh_627 routing_veh_627" vType="CAR" speedFactor="0.88" vaporized=""/>
    <tripinfo id="veh_548" depart="58.00" departLane="edge_N_in_0" departPos="5.10" departSpeed="0.00" departDelay="0.00" arrival="116.00" arrivalLane="edge_W_out_0" arrivalPos="189.60" arrivalSpeed="12.63" duration="58.00" routeLength="383.13" waitingTime="16.00" waitingCount="1" stopTime="0.00" timeLoss="29.04" rerouteNo="0" devices="tripinfo_veh_548 routing_veh_548" vType="CAR" speedFactor="1.00" vaporized=""/>
    <tripinfo id="veh_125" depart="42.00" departLane="edge_N_in_0" departPos="12.10" departSpeed="0.00" departDelay="2.00" arrival="117.00" arrivalLane="edge_S_out_0" arrivalPos="189.60" arrivalSpeed="11.02" duration="75.00" routeLength="387.90" waitingTime="25.00" waitingCount="1" stopTime="0.00" timeLoss="39.30" rerouteNo="0" devices="tripinfo_veh_125 routing_veh_125" vType="TRUCK" speedFactor="1.00" vaporized=""/>
    <tripinfo id="veh_323" depart="66.00" departLane="edge_N_in_0" departPos="5.10" departSpeed="0.00" departDelay="0.00" arrival="118.00" arrivalLane="edge_W_out_0" arrivalPos="189.60" arrivalSpeed="12.46" duration="52.00" routeLength="383.13" waitingTime="11.00" waitingCount="1" stopTime="0.00" timeLoss="23.81" rerouteNo="0" devices="tripinfo_veh_323 routing_veh_323" vType="CAR" speedFactor="1.10" vaporized=""/>
    <tripinfo id="veh_404" depart="35.00" departLane="edge_S_in_0" departPos="5.10" departSpeed="0.00" departDelay="0.00" arrival="121.00" arrivalLane="edge_W_out_1" arrivalPos="189.60" arrivalSpeed="10.78" duration="86.00" routeLength="393.45" waitingTime="38.00" waitingCount="2" stopTime="0.00" timeLoss="49.60" rerouteNo="0" devices="tripinfo_veh_404 routing_veh_404" vType="CAR" speedFactor="0.82" vaporized=""/>
    <tripinfo id="veh_624" depart="78.00" departLane="edge_N_in_0" departPos="5.10" departSpeed="0.00" departDelay="0.00" arrival="121.00" arrivalLane="edge_W_out_0" arrivalPos="189.60" arrivalSpeed="12.47" duration="43.00" routeLength="383.13" waitingTime="0.00" waitingCount="0" stopTime="0.00" timeLoss="14.06" rerouteNo="0" devices="tripinfo_veh_624 routing_veh_624" vType="CAR" speedFactor="1.08" vaporized=""/>
    <tripinfo id="veh_16" depart="78.00" departLane="edge_S_in_0" departPos="2.60" departSpeed="0.00" departDelay="0.00" arrival="122.00" arrivalLane="edge_W_out_1" arrivalPos="189.60" arrivalSpeed="13.05" duration="44.00" routeLength="395.95" waitingTime="3.00" waitingCount="1" stopTime="0.00" timeLoss="13.72" rerouteNo="0" devices="tripinfo_veh_16 routing_veh_16" vType="MOTORCYCLE" speedFactor="0.97" vaporized=""/>
    <tripinfo id="veh_98" depart="87.00" departLane="edge_S_in_0" departPos="2.60" departSpeed="0.00" departDelay="0.00" arrival="124.00" arrivalLane="edge_E_out_0" arrivalPos="189.60" arrivalSpeed="13.00" duration="37.00" routeLength="385.63" waitingTime="0.00" waitingCount="0" stopTime="0.00" timeLoss="6.31" rerouteNo="0" devices="tripinfo_veh_98 routing_veh_98" vType="MOTORCYCLE" speedFactor="0.94" vaporized=""/>
    <tripinfo id="veh_119" depart="81.00" departLane="edge_N_in_0" departPos="5.10" departSpeed="0.00" departDelay="0.00" arrival="125.00" arrivalLane="edge_W_out_0" arrivalPos="189.60" arrivalSpeed="11.69" duration="44.00" routeLength="383.13" waitingTime="0.00" waitingCount="0" stopTime="0.00" timeLoss="13.51" rerouteNo="0" devices="tripinfo_veh_119 routing_veh_119" vType="CAR" speedFactor="0.94" vaporized=""/>
    <tripinfo id="veh_633" depart="90.00" departLane="edge_S_in_0" departPos="5.10" departSpeed="0.00" departDelay="3.00" arrival="131.00" arrivalLane="edge_W_out_1" arrivalPos="189.60" arrivalSpeed="10.94" duration="41.00" routeLength="393.45" waitingTime="0.00" waitingCount="0" stopTime="0.00" timeLoss="5.36" rerouteNo="0" devices="tripinfo_veh_633 routing_veh_633" vType="CAR" speedFactor="0.82" vaporized=""/>
    <tripinfo id="veh_687" depart="100.00" departLane="edge_N_in_0" departPos="5.10" departSpeed="0.00" departDelay="0.00" arrival="134.00" arrivalLane="edge_S_out_0" arrivalPos="189.60" arrivalSpeed="12.47" duration="34.00" routeLength="394.90" waitingTime="0.00" waitingCount="0" stopTime="0.00" timeLoss="4.76" rerouteNo="0" devices="tripinfo_veh_687 routing_veh_687" vType="CAR" speedFactor="1.07" vaporized=""/>
    <tripinfo id="veh_26" depart="101.00" departLane="edge_S_in_0" departPos="2.60" departSpeed="0.00" departDelay="0.00" arrival="134.00" arrivalLane="edge_E_out_0" arrivalPos="189.60" arrivalSpeed="13.08" duration="33.00" routeLength="385.63" waitingTime="0.00" waitingCount="0" stopTime="0.00" timeLoss="5.79" rerouteNo="0" devices="tripinfo_veh_26 routing_veh_26" vType="MOTORCYCLE" speedFactor="1.06" vaporized=""/>
    <tripinfo id="veh_298" depart="106.00" departLane="edge_S_in_0" departPos="5.10" departSpeed="0.00" departDelay="0.00" arrival="140.00" arrivalLane="edge_N_out_0" arrivalPos="189.60" arrivalSpeed="12.96" duration="34.00" routeLength="394.90" waitingTime="0.00" waitingCount="0" stopTime="0.00" timeLoss="3.77" rerouteNo="0" devices="tripinfo_veh_298 routing_veh_298" vType="CAR" speedFactor="0.95" vaporized=""/>
    <tripinfo id="veh_347" depart="104.00" departLane="edge_N_in_0" departPos="12.10" departSpeed="0.00" departDelay="2.00" arrival="147.00" arrivalLane="edge_E_out_1" arrivalPos="189.60" arrivalSpeed="10.80" duration="43.00" routeLength="386.45" waitingTime="0.00" waitingCount="0" stopTime="0.00" timeLoss="7.22" rerouteNo="0" devices="tripinfo_veh_347 routing_veh_347" vType="TRUCK" speedFactor="0.96" vaporized=""/>
    <tripinfo id="veh_126" depart="109.00" departLane="edge_N_in_0" departPos="12.10" departSpeed="0.00" departDelay="3.00" arrival="151.00" arrivalLane="edge_W_out_0" arrivalPos="189.60" arrivalSpeed="10.82" duration="42.00" routeLength="376.13" waitingTime="0.00" waitingCount="0" stopTime="0.00" timeLoss="6.94" rerouteNo="0" devices="tripinfo_veh_126 routing_veh_126" vType="TRUCK" speedFactor="0.93" vaporized=""/>
    <tripinfo id="veh_498" depart="74.00" departLane="edge_W_in_0" departPos="5.10" departSpeed="0.00" departDelay="1.00" arrival="153.00" arrivalLane="edge_E_out_0" arrivalPos="189.60" arrivalSpeed="13.84" duration="79.00" routeLength="394.90" waitingTime="42.00" waitingCount="1" stopTime="0.00" timeLoss="49.95" rerouteNo="0" devices="tripinfo_veh_498 routing_veh_498" vType="CAR" speedFactor="1.12" vaporized=""/>
    <tripinfo id="veh_609" depart="92.00" departLane="edge_E_in_0" departPos="2.60" departSpeed="0.00" departDelay="0.00" arrival="153.00" arrivalLane="edge_W_out_0" arrivalPos="189.60" arrivalSpeed="15.97" duration="61.00" routeLength="397.40" waitingTime="25.00" waitingCount="1" stopTime="0.00" timeLoss="35.41" rerouteNo="0" devices="tripinfo_veh_609 routing_veh_609" vType="MOTORCYCLE" speedFactor="1.15" vaporized=""/>
    <tripinfo id="veh_492" depart="81.00" departLane="edge_W_in_0" departPos="2.60" departSpeed="0.00" departDelay="0.00" arrival="154.00" arrivalLane="edge_E_out_1" arrivalPos="189.60" arrivalSpeed="11.01" duration="73.00" routeLength="397.40" waitingTime="33.00" waitingCount="1" stopTime="0.00" timeLoss="41.17" rerouteNo="0" devices="tripinfo_veh_492 routing_veh_492" vType="MOTORCYCLE" speedFactor="0.91" vaporized=""/>
    <tripinfo id="veh_308" depart="86.00" departLane="edge_W_in_0" departPos="2.60" departSpeed="0.00" departDelay="1.00" arrival="154.00" arrivalLane="edge_S_out_0" arrivalPos="189.60" arrivalSpeed="13.85" duration="68.00" routeLength="385.63" waitingTime="31.00" waitingCount="1" stopTime="0.00" timeLoss="41.05" rerouteNo="0" devices="tripinfo_veh_308 routing_veh_308" vType="MOTORCYCLE" speedFactor="1.08" vaporized=""/>
    <tripinfo id="veh_290" depart="94.00" departLane="edge_E_in_0" departPos="5.10" departSpeed="0.00" departDelay="1.00" arrival="154.00" arrivalLane="edge_N_out_0" arrivalPos="189.60" arrivalSpeed="13.58" duration="60.00" routeLength="383.13" waitingTime="22.00" waitingCount="1" stopTime="0.00" timeLoss="32.07" rerouteNo="0" devices="tripinfo_veh_290 routing_veh_290" vType="CAR" speedFactor="1.15" vaporized=""/>
    <tripinfo id="veh_686" depart="84.00" departLane="edge_W_in_0" departPos="5.10" departSpeed="0.00" departDelay="0.00" arrival="156.00" arrivalLane="edge_E_out_1" arrivalPos="189.60" arrivalSpeed="13.66" duration="72.00" routeLength="394.90" waitingTime="32.00" waitingCount="1" stopTime="0.00" timeLoss="42.73" rerouteNo="0" devices="tripinfo_veh_686 routing_veh_686" vType="CAR" speedFactor="1.00" vaporized=""/>
    <tripinfo id="veh_210" depart="89.00" departLane="edge_W_in_0" departPos="5.10" departSpeed="0.00" departDelay="0.00" arrival="156.00" arrivalLane="edge_S_out_0" arrivalPos="189.60" arrivalSpeed="13.44" duration="67.00" routeLength="383.13" waitingTime="28.00" waitingCount="1" stopTime="0.00" timeLoss="38.81" rerouteNo="0" devices="tripinfo_veh_210 routing_veh_210" vType="CAR" speedFactor="1.01" vaporized=""/>
    <tripinfo id="veh_558" depart="123.00" departLane="edge_E_in_0" departPos="5.10" departSpeed="0.00" departDelay="0.00" arrival="158.00" arrivalLane="edge_N_out_0" arrivalPos="189.60" arrivalSpeed="13.24" duration="35.00" routeLength="383.13" waitingTime="0.00" waitingCount="0" stopTime="0.00" timeLoss="6.44" rerouteNo="0" devices="tripinfo_veh_558 routing_veh_558" vType="CAR" speedFactor="1.02" vaporized=""/>
    <tripinfo id="veh_292" depart="100.00" departLane="edge_W_in_0" departPos="12.10" departSpeed="0.00" departDelay="0.00" arrival="162.00" arrivalLane="edge_E_out_1" arrivalPos="189.60" arrivalSpeed="11.10" duration="62.00" routeLength="387.90" waitingTime="14.00" waitingCount="1" stopTime="0.00" timeLoss="26.60" rerouteNo="0" devices="tripinfo_veh_292 routing_veh_292" vType="TRUCK" speedFactor="1.03" vaporized=""/>
    <tripinfo id="veh_652" depart="114.00" departLane="edge_W_in_0" departPos="5.10" departSpeed="0.00" departDelay="0.00" arrival="162.00" arrivalLane="edge_N_out_1" arrivalPos="189.60" arrivalSpeed="13.58" duration="48.00" routeLength="393.45" waitingTime="5.00" waitingCount="1" stopTime="0.00" timeLoss="19.08" rerouteNo="0" devices="tripinfo_veh_652 routing_veh_652" vType="CAR" speedFactor="1.12" vaporized=""/>
    <tripinfo id="veh_549" depart="117.00" departLane="edge_W_in_0" departPos="2.60" departSpeed="0.00" departDelay="0.00" arrival="162.00" arrivalLane="edge_E_out_0" arrivalPos="189.60" arrivalSpeed="11.32" duration="45.00" routeLength="397.40" waitingTime="2.00" waitingCount="1" stopTime="0.00" timeLoss="10.65" rerouteNo="0" devices="tripinfo_veh_549 routing_veh_549" vType="MOTORCYCLE" speedFactor="0.85" vaporized=""/>
    <tripinfo id="veh_282" depart="87.00" departLane="edge_E_in_0" departPos="12.10" departSpeed="0.00" departDelay="0.00" arrival="169.00" arrivalLane="edge_S_out_1" arrivalPos="189.60" arrivalSpeed="11.04" duration="82.00" routeLength="386.45" waitingTime="29.00" waitingCount="2" stopTime="0.00" timeLoss="46.71" rerouteNo="0" devices="tripinfo_veh_282 routing_veh_282" vType="TRUCK" speedFactor="1.04" vaporized=""/>
    <tripinfo id="veh_335" depart="120.00" departLane="edge_W_in_0" departPos="12.10" departSpeed="0.00" departDelay="0.00" arrival="169.00" arrivalLane="edge_N_out_1" arrivalPos="189.60" arrivalSpeed="10.39" duration="49.00" routeLength="386.45" waitingTime="0.00" waitingCount="0" stopTime="0.00" timeLoss="13.50" rerouteNo="0" devices="tripinfo_veh_335 routing_veh_335" vType="TRUCK" speedFactor="0.96" vaporized=""/>
    <tripinfo id="veh_21" depart="138.00" departLane="edge_E_in_0" departPos="2.60" departSpeed="0.00" departDelay="0.00" arrival="169.00" arrivalLane="edge_W_out_0" arrivalPos="189.60" arrivalSpeed="14.29" duration="31.00" routeLength="397.40" waitingTime="0.00" waitingCount="0" stopTime="0.00" timeLoss="3.39" rerouteNo="0" devices="tripinfo_veh_21 routing_veh_21" vType="MOTORCYCLE" speedFactor="1.05" vaporized=""/>
    <tripinfo id="veh_29" depart="114.00" departLane="edge_E_in_0" departPos="5.10" departSpeed="0.00" departDelay="0.00" arrival="172.00" arrivalLane="edge_S_out_1" arrivalPos="189.60" arrivalSpeed="10.24" duration="58.00" routeLength="393.45" waitingTime="7.00" waitingCount="1" stopTime="0.00" timeLoss="22.52" rerouteNo="0" devices="tripinfo_veh_29 routing_veh_29" vType="CAR" speedFactor="0.83" vaporized=""/>
    <tripinfo id="veh_457" depart="136.00" departLane="edge_W_in_0" departPos="12.10" departSpeed="0.00" departDelay="0.00" arrival="178.00" arrivalLane="edge_S_out_0" arrivalPos="189.60" arrivalSpeed="10.74" duration="42.00" routeLength="376.13" waitingTime="0.00" waitingCount="0" stopTime="0.00" timeLoss="7.01" rerouteNo="0" devices="tripinfo_veh_457 routing_veh_457" vType="TRUCK" speedFactor="0.95" vaporized=""/>
    <tripinfo id="veh_478" depart="145.00" departLane="edge_W_in_0" departPos="5.10" departSpeed="0.00" departDelay="0.00" arrival="178.00" arrivalLane="edge_E_out_0" arrivalPos="189.60" arrivalSpeed="12.51" duration="33.00" routeLength="394.90" waitingTime="0.00" waitingCount="0" stopTime="0.00" timeLoss="3.84" rerouteNo="0" devices="tripinfo_veh_478 routing_veh_478" vType="CAR" speedFactor="1.14" vaporized=""/>
    <tripinfo id="veh_28" depart="136.00" departLane="edge_S_in_0" departPos="2.60" departSpeed="0.00" departDelay="0.00" arrival="196.00" arrivalLane="edge_E_out_0" arrivalPos="189.60" arrivalSpeed="15.59" duration="60.00" routeLength="385.63" waitingTime="26.00" waitingCount="1" stopTime="0.00" timeLoss="34.25" rerouteNo="0" devices="tripinfo_veh_28 routing_veh_28" vType="MOTORCYCLE" speedFactor="1.14" vaporized=""/>
    <tripinfo id="veh_371" depart="115.00" departLane="edge_S_in_0" departPos="5.10" departSpeed="0.00" departDelay="0.00" arrival="198.00" arrivalLane="edge_N_out_0" arrivalPos="189.60" arrivalSpeed="13.50" duration="83.00" routeLength="394.90" waitingTime="43.00" waitingCount="1" stopTime="0.00" timeLoss="53.92" rerouteNo="0" devices="tripinfo_veh_371 routing_veh_371" vType="CAR" speedFactor="0.99" vaporized=""/>
    <tripinfo id="veh_42" depart="112.00" departLane="edge_N_in_0" departPos="2.60" departSpeed="0.00" departDelay="2.00" arrival="199.00" arrivalLane="edge_W_out_0" arrivalPos="189.60" arrivalSpeed="12.05" duration="87.00" routeLength="385.63" waitingTime="42.00" waitingCount="1" stopTime="0.00" timeLoss="55.71" rerouteNo="0" devices="tripinfo_veh_42 routing_veh_42" vType="MOTORCYCLE" speedFactor="0.94" vaporized=""/>
    <tripinfo id="veh_684" depart="144.00" departLane="edge_S_in_0" departPos="5.10" departSpeed="0.00" departDelay="0.00" arrival="199.00" arrivalLane="edge_E_out_0" arrivalPos="189.60" arrivalSpeed="13.27" duration="55.00" routeLength="383.13" waitingTime="16.00" waitingCount="1" stopTime="0.00" timeLoss="26.96" rerouteNo="0" devices="tripinfo_veh_684 routing_veh_684" vType="CAR" speedFactor="1.10" vaporized=""/>
    <tripinfo id="veh_55" depart="118.00" departLane="edge_N_in_0" departPos="2.60" departSpeed="0.00" departDelay="0.00" arrival="200.00" arrivalLane="edge_W_out_0" arrivalPos="189.60" arrivalSpeed="13.75" duration="82.00" routeLength="385.63" waitingTime="41.00" waitingCount="1" stopTime="0.00" timeLoss="54.03" rerouteNo="0" devices="tripinfo_veh_55 routing_veh_55" vType="MOTORCYCLE" speedFactor="1.03" vaporized=""/>
    <tripinfo id="veh_557" depart="123.00" departLane="edge_N_in_0" departPos="2.60" departSpeed="0.00" departDelay="0.00" arrival="201.00" arrivalLane="edge_E_out_1" arrivalPos="189.60" arrivalSpeed="12.83" duration="78.00" routeLength="395.95" waitingTime="38.00" waitingCount="2" stopTime="0.00" timeLoss="49.44" rerouteNo="0" devices="tripinfo_veh_557 routing_veh_557" vType="MOTORCYCLE" speedFactor="1.04" vaporized=""/>
    <tripinfo id="veh_250" depart="154.00" departLane="edge_S_in_0" departPos="5.10" departSpeed="0.00" departDelay="0.00" arrival="201.00" arrivalLane="edge_E_out_0" arrivalPos="189.60" arrivalSpeed="13.79" duration="47.00" routeLength="383.13" waitingTime="9.00" waitingCount="1" stopTime="0.00" timeLoss="18.70" rerouteNo="0" devices="tripinfo_veh_250 routing_veh_250" vType="CAR" speedFactor="1.21" vaporized=""/>
    <tripinfo id="veh_442" depart="145.00" departLane="edge_N_in_0" departPos="5.10" departSpeed="0.00" departDelay="0.00" arrival="203.00" arrivalLane="edge_E_out_1" arrivalPos="189.60" arrivalSpeed="13.45" duration="58.00" routeLength="393.45" waitingTime="16.00" waitingCount="2" stopTime="0.00" timeLoss="29.16" rerouteNo="0" devices="tripinfo_veh_442 routing_veh_442" vType="CAR" speedFactor="1.07" vaporized=""/>
    <tripinfo id="veh_393" depart="151.00" departLane="edge_N_in_0" departPos="2.60" departSpeed="0.00" departDelay="0.00" arrival="203.00" arrivalLane="edge_W_out_0" arrivalPos="189.60" arrivalSpeed="10.59" duration="52.00" routeLength="385.63" waitingTime="9.00" waitingCount="1" stopTime="0.00" timeLoss="19.04" rerouteNo="0" devices="tripinfo_veh_393 routing_veh_393" vType="MOTORCYCLE" speedFactor="0.87" vaporized=""/>
    <tripinfo id="veh_183" depart="157.00" departLane="edge_N_in_0" departPos="5.10" departSpeed="0.00" departDelay="0.00" arrival="205.00" arrivalLane="edge_S_out_1" arrivalPos="189.60" arrivalSpeed="13.22" duration="48.00" routeLength="394.90" waitingTime="3.00" waitingCount="1" stopTime="0.00" timeLoss="18.17" rerouteNo="0" devices="tripinfo_veh_183 routing_veh_183" vType="CAR" speedFactor="0.97" vaporized=""/>
    <tripinfo id="veh_4" depart="158.00" departLane="edge_S_in_0" departPos="5.10" departSpeed="0.00" departDelay="0.00" arrival="205.00" arrivalLane="edge_E_out_0" arrivalPos="189.60" arrivalSpeed="12.91" duration="47.00" routeLength="383.13" waitingTime="5.00" waitingCount="1" stopTime="0.00" timeLoss="17.05" rerouteNo="0" devices="tripinfo_veh_4 routing_veh_4" vType="CAR" speedFactor="0.94" vaporized=""/>
    <tripinfo id="veh_166" depart="162.00" departLane="edge_N_in_0" departPos="2.60" departSpeed="0.00" departDelay="0.00" arrival="205.00" arrivalLane="edge_S_out_0" arrivalPos="189.60" arrivalSpeed="11.17" duration="43.00" routeLength="397.40" waitingTime="1.00" waitingCount="1" stopTime="0.00" timeLoss="10.22" rerouteNo="0" devices="tripinfo_veh_166 routing_veh_166" vType="MOTORCYCLE" speedFactor="0.88" vaporized=""/>
    <tripinfo id="veh_460" depart="161.00" departLane="edge_S_in_0" departPos="5.10" departSpeed="0.00" departDelay="2.00" arrival="209.00" arrivalLane="edge_E_out_0" arrivalPos="189.60" arrivalSpeed="11.06" duration="48.00" routeLength="383.13" waitingTime="4.00" waitingCount="1" stopTime="0.00" timeLoss="15.15" rerouteNo="0" devices="tripinfo_veh_460 routing_veh_460" vType="CAR" speedFactor="0.88" vaporized=""/>
    <tripinfo id="veh_450" depart="172.00" departLane="edge_N_in_0" departPos="5.10" departSpeed="0.00" departDelay="0.00" arrival="209.00" arrivalLane="edge_E_out_1" arrivalPos="189.60" arrivalSpeed="12.54" duration="37.00" routeLength="393.45" waitingTime="0.00" waitingCount="0" stopTime="0.00" timeLoss="5.85" rerouteNo="0" devices="tripinfo_veh_450 routing_veh_450" vType="CAR" speedFactor="0.94" vaporized=""/>
    <tripinfo id="veh_555" depart="169.00" departLane="edge_S_in_0" departPos="5.10" departSpeed="0.00" departDelay="0.00" arrival="212.00" arrivalLane="edge_N_out_1" arrivalPos="189.60" arrivalSpeed="13.57" duration="43.00" routeLength="394.90" waitingTime="0.00" waitingCount="0" stopTime="0.00" timeLoss="14.42" rerouteNo="0" devices="tripinfo_veh_555 routing_veh_555" vType="CAR" speedFactor="1.10" vaporized=""/>
    <tripinfo id="veh_234" depart="181.00" departLane="edge_S_in_0" departPos="2.60" departSpeed="0.00" departDelay="0.00" arrival="212.00" arrivalLane="edge_N_out_0" arrivalPos="189.60" arrivalSpeed="15.03" duration="31.00" routeLength="397.40" waitingTime="0.00" waitingCount="0" stopTime="0.00" timeLoss="4.67" rerouteNo="0" devices="tripinfo_veh_234 routing_veh_234" vType="MOTORCYCLE" speedFactor="1.09" vaporized=""/>
    <tripinfo id="veh_564" depart="165.00" departLane="edge_S_in_0" departPos="12.10" departSpeed="0.00" departDelay="3.00" arrival="213.00" arrivalLane="edge_W_out_1" arrivalPos="189.60" arrivalSpeed="10.47" duration="48.00" routeLength="386.45" waitingTime="1.00" waitingCount="1" stopTime="0.00" timeLoss="12.90" rerouteNo="0" devices="tripinfo_veh_564 routing_veh_564" vType="TRUCK" speedFactor="1.08" vaporized=""/>
    <tripinfo id="veh_597" depart="188.00" departLane="edge_N_in_0" departPos="2.60" departSpeed="0.00" departDelay="0.00" arrival="224.00" arrivalLane="edge_E_out_1" arrivalPos="189.60" arrivalSpeed="12.31" duration="36.00" routeLength="395.95" waitingTime="0.00" waitingCount="0" stopTime="0.00" timeLoss="5.02" rerouteNo="0" devices="tripinfo_veh_597 routing_veh_597" vType="MOTORCYCLE" speedFactor="0.96" vaporized=""/>