<?xml version="1.0" encoding="UTF-8"?>

<!-- generated on 2025-04-18 20:06:12 by Eclipse SUMO sumo Version 1.22.0
<sumoConfiguration xmlns:xsi="http://www.w3.org/2001/XMLSchema-instance" xsi:noNamespaceSchemaLocation="http://sumo.dlr.de/xsd/sumoConfiguration.xsd">

    <input>
        <net-file value="my_intersection.net.xml"/>
        <route-files value="random_traffic.rou.xml"/>
        <additional-files value="tls_program.add.xml"/>
    </input>

    <output>
        <queue-output value="outputs/fixed_time_queue.xml"/>
        <summary-output value="outputs/fixed_time_summary.xml"/>
        <tripinfo-output value="outputs/fixed_time_tripinfo.xml"/>
        <statistic-output value="outputs/fixed_time_stats.xml"/>
    </output>

    <time>
        <begin value="0"/>
        <end value="3600"/>
    </time>

    <processing>
        <ignore-route-errors value="true"/>
        <time-to-teleport value="-1"/>
    </processing>

    <report>
        <duration-log.disable value="true"/>
        <no-step-log value="true"/>
    </report>

    <gui_only>
        <start value="true"/>
        <delay value="150"/>
        <tracker-interval value="0.1"/>
    </gui_only>

</sumoConfiguration>
-->

<queue-export xmlns:xsi="http://www.w3.org/2001/XMLSchema-instance" xsi:noNamespaceSchemaLocation="http://sumo.dlr.de/xsd/queue_file.xsd">
    <data timestep="0.00">
        <lanes/>
    </data>
    <data timestep="1.00">
        <lanes/>
    </data>
    <data timestep="2.00">
        <lanes/>
    </data>
    <data timestep="3.00">
        <lanes/>
    </data>
    <data timestep="4.00">
        <lanes/>
    </data>
    <data timestep="5.00">
        <lanes/>
    </data>
    <data timestep="6.00">
        <lanes/>
    </data>
    <data timestep="7.00">
        <lanes/>
    </data>
    <data timestep="8.00">
        <lanes/>
    </data>
    <data timestep="9.00">
        <lanes/>
    </data>
    <data timestep="10.00">
        <lanes/>
    </data>
    <data timestep="11.00">
        <lanes/>
    </data>
    <data timestep="12.00">
        <lanes/>
    </data>
    <data timestep="13.00">
        <lanes/>
    </data>
    <data timestep="14.00">
        <lanes/>
    </data>
    <data timestep="15.00">
        <lanes/>
    </data>
    <data timestep="16.00">
        <lanes/>
    </data>
    <data timestep="17.00">
        <lanes/>
    </data>
    <data timestep="18.00">
        <lanes/>
    </data>
    <data timestep="19.00">
        <lanes/>
    </data>
    <data timestep="20.00">
        <lanes/>
    </data>
    <data timestep="21.00">
        <lanes>
            <lane id="edge_E_in_1" queueing_time="0.00" queueing_length="0.00" queueing_length_experimental="6.14"/>
            <lane id="edge_W_in_0" queueing_time="1.00" queueing_length="6.02" queueing_length_experimental="6.02"/>
        </lanes>
    </data>
    <data timestep="22.00">
        <lanes>
            <lane id="edge_E_in_1" queueing_time="0.00" queueing_length="0.00" queueing_length_experimental="6.01"/>
            <lane id="edge_W_in_0" queueing_time="2.00" queueing_length="6.01" queueing_length_experimental="6.01"/>
        </lanes>
    </data>
    <data timestep="23.00">
        <lanes>
            <lane id="edge_E_in_1" queueing_time="1.00" queueing_length="6.01" queueing_length_experimental="6.01"/>
            <lane id="edge_W_in_0" queueing_time="3.00" queueing_length="6.00" queueing_length_experimental="13.60"/>
        </lanes>
    </data>
    <data timestep="24.00">
        <lanes>
            <lane id=":center_3_0" queueing_time="0.00" queueing_length="0.00" queueing_length_experimental="2.62"/>
            <lane id="edge_E_in_1" queueing_time="2.00" queueing_length="6.00" queueing_length_experimental="6.00"/>
            <lane id="edge_W_in_0" queueing_time="4.00" queueing_length="13.51" queueing_length_experimental="13.51"/>
        </lanes>
    </data>
    <data timestep="25.00">
        <lanes>
            <lane id=":center_3_0" queueing_time="1.00" queueing_length="2.60" queueing_length_experimental="2.60"/>
            <lane id="edge_E_in_0" queueing_time="1.00" queueing_length="3.52" queueing_length_experimental="3.52"/>
            <lane id="edge_E_in_1" queueing_time="3.00" queueing_length="6.00" queueing_length_experimental="6.00"/>
            <lane id="edge_W_in_0" queueing_time="5.00" queueing_length="13.50" queueing_length_experimental="13.50"/>
        </lanes>
    </data>
    <data timestep="26.00">
        <lanes>
            <lane id=":center_3_0" queueing_time="2.00" queueing_length="2.60" queueing_length_experimental="2.60"/>
            <lane id="edge_E_in_0" queueing_time="2.00" queueing_length="3.51" queueing_length_experimental="3.51"/>
            <lane id="edge_E_in_1" queueing_time="4.00" queueing_length="6.00" queueing_length_experimental="6.00"/>
            <lane id="edge_W_in_0" queueing_time="6.00" queueing_length="13.50" queueing_length_experimental="13.50"/>
        </lanes>
    </data>
    <data timestep="27.00">
        <lanes>
            <lane id="edge_E_in_0" queueing_time="3.00" queueing_length="3.50" queueing_length_experimental="3.50"/>
            <lane id="edge_E_in_1" queueing_time="5.00" queueing_length="6.00" queueing_length_experimental="10.26"/>
            <lane id="edge_W_in_0" queueing_time="7.00" queueing_length="13.50" queueing_length_experimental="13.50"/>
        </lanes>
    </data>
    <data timestep="28.00">
        <lanes>
            <lane id="edge_E_in_0" queueing_time="4.00" queueing_length="3.50" queueing_length_experimental="3.50"/>
            <lane id="edge_E_in_1" queueing_time="6.00" queueing_length="6.00" queueing_length_experimental="10.08"/>
            <lane id="edge_W_in_0" queueing_time="8.00" queueing_length="13.50" queueing_length_experimental="13.50"/>
        </lanes>
    </data>
    <data timestep="29.00">
        <lanes>
            <lane id="edge_E_in_0" queueing_time="5.00" queueing_length="3.50" queueing_length_experimental="3.50"/>
            <lane id="edge_E_in_1" queueing_time="7.00" queueing_length="10.04" queueing_length_experimental="10.04"/>
            <lane id="edge_W_in_0" queueing_time="9.00" queueing_length="13.50" queueing_length_experimental="18.18"/>
            <lane id="edge_W_in_1" queueing_time="0.00" queueing_length="0.00" queueing_length_experimental="6.02"/>
        </lanes>
    </data>
    <data timestep="30.00">
        <lanes>
            <lane id="edge_E_in_0" queueing_time="6.00" queueing_length="3.50" queueing_length_experimental="3.50"/>
            <lane id="edge_E_in_1" queueing_time="8.00" queueing_length="10.00" queueing_length_experimental="10.00"/>
            <lane id="edge_W_in_0" queueing_time="10.00" queueing_length="13.50" queueing_length_experimental="17.83"/>
            <lane id="edge_W_in_1" queueing_time="1.00" queueing_length="6.00" queueing_length_experimental="6.00"/>
        </lanes>
    </data>
    <data timestep="31.00">
        <lanes>
            <lane id="edge_E_in_0" queueing_time="7.00" queueing_length="3.50" queueing_length_experimental="3.50"/>
            <lane id="edge_E_in_1" queueing_time="9.00" queueing_length="10.00" queueing_length_experimental="10.00"/>
            <lane id="edge_W_in_0" queueing_time="11.00" queueing_length="13.50" queueing_length_experimental="25.50"/>
            <lane id="edge_W_in_1" queueing_time="2.00" queueing_length="6.00" queueing_length_experimental="6.00"/>
        </lanes>
    </data>
    <data timestep="32.00">
        <lanes>
            <lane id="edge_E_in_0" queueing_time="8.00" queueing_length="3.50" queueing_length_experimental="3.50"/>
            <lane id="edge_E_in_1" queueing_time="10.00" queueing_length="10.00" queueing_length_experimental="17.87"/>
            <lane id="edge_W_in_0" queueing_time="12.00" queueing_length="13.50" queueing_length_experimental="25.23"/>
            <lane id="edge_W_in_1" queueing_time="3.00" queueing_length="6.00" queueing_length_experimental="6.00"/>
        </lanes>
    </data>
    <data timestep="33.00">
        <lanes>
            <lane id="edge_E_in_0" queueing_time="9.00" queueing_length="3.50" queueing_length_experimental="18.52"/>
            <lane id="edge_E_in_1" queueing_time="11.00" queueing_length="10.00" queueing_length_experimental="17.60"/>
            <lane id="edge_W_in_0" queueing_time="13.00" queueing_length="17.50" queueing_length_experimental="25.07"/>
            <lane id="edge_W_in_1" queueing_time="4.00" queueing_length="6.00" queueing_length_experimental="6.00"/>
        </lanes>
    </data>
    <data timestep="34.00">
        <lanes>
            <lane id="edge_E_in_0" queueing_time="10.00" queueing_length="18.51" queueing_length_experimental="18.51"/>
            <lane id="edge_E_in_1" queueing_time="12.00" queueing_length="17.55" queueing_length_experimental="17.55"/>
            <lane id="edge_W_in_0" queueing_time="14.00" queueing_length="25.02" queueing_length_experimental="25.02"/>
            <lane id="edge_W_in_1" queueing_time="5.00" queueing_length="6.00" queueing_length_experimental="6.00"/>
        </lanes>
    </data>
    <data timestep="35.00">
        <lanes>
            <lane id="edge_E_in_0" queueing_time="11.00" queueing_length="18.50" queueing_length_experimental="18.50"/>
            <lane id="edge_E_in_1" queueing_time="13.00" queueing_length="17.51" queueing_length_experimental="17.51"/>
            <lane id="edge_W_in_0" queueing_time="15.00" queueing_length="25.01" queueing_length_experimental="25.01"/>
            <lane id="edge_W_in_1" queueing_time="6.00" queueing_length="6.00" queueing_length_experimental="13.77"/>
        </lanes>
    </data>
    <data timestep="36.00">
        <lanes>
            <lane id="edge_E_in_0" queueing_time="12.00" queueing_length="18.50" queueing_length_experimental="18.50"/>
            <lane id="edge_E_in_1" queueing_time="14.00" queueing_length="17.50" queueing_length_experimental="17.50"/>
            <lane id="edge_W_in_0" queueing_time="16.00" queueing_length="25.00" queueing_length_experimental="29.12"/>
            <lane id="edge_W_in_1" queueing_time="7.00" queueing_length="6.00" queueing_length_experimental="13.51"/>
        </lanes>
    </data>
    <data timestep="37.00">
        <lanes>
            <lane id="edge_E_in_0" queueing_time="13.00" queueing_length="18.50" queueing_length_experimental="18.50"/>
            <lane id="edge_E_in_1" queueing_time="15.00" queueing_length="17.50" queueing_length_experimental="17.50"/>
            <lane id="edge_W_in_0" queueing_time="17.00" queueing_length="29.06" queueing_length_experimental="29.06"/>
            <lane id="edge_W_in_1" queueing_time="8.00" queueing_length="13.51" queueing_length_experimental="18.28"/>
        </lanes>
    </data>
    <data timestep="38.00">
        <lanes>
            <lane id="edge_E_in_0" queueing_time="14.00" queueing_length="18.50" queueing_length_experimental="18.50"/>
            <lane id="edge_E_in_1" queueing_time="16.00" queueing_length="17.50" queueing_length_experimental="17.50"/>
            <lane id="edge_W_in_0" queueing_time="18.00" queueing_length="29.01" queueing_length_experimental="29.01"/>
            <lane id="edge_W_in_1" queueing_time="9.00" queueing_length="13.50" queueing_length_experimental="17.51"/>
        </lanes>
    </data>
    <data timestep="39.00">
        <lanes>
            <lane id="edge_E_in_0" queueing_time="15.00" queueing_length="18.50" queueing_length_experimental="33.51"/>
            <lane id="edge_E_in_1" queueing_time="17.00" queueing_length="17.50" queueing_length_experimental="21.75"/>
            <lane id="edge_W_in_0" queueing_time="19.00" queueing_length="29.01" queueing_length_experimental="29.01"/>
            <lane id="edge_W_in_1" queueing_time="10.00" queueing_length="17.51" queueing_length_experimental="17.51"/>
        </lanes>
    </data>
    <data timestep="40.00">
        <lanes>
            <lane id="edge_E_in_0" queueing_time="16.00" queueing_length="33.50" queueing_length_experimental="33.50"/>
            <lane id="edge_E_in_1" queueing_time="18.00" queueing_length="17.50" queueing_length_experimental="21.53"/>
            <lane id="edge_W_in_0" queueing_time="20.00" queueing_length="29.01" queueing_length_experimental="29.01"/>
            <lane id="edge_W_in_1" queueing_time="11.00" queueing_length="17.50" queueing_length_experimental="17.50"/>
        </lanes>
    </data>
    <data timestep="41.00">
        <lanes>
            <lane id="edge_E_in_0" queueing_time="17.00" queueing_length="33.50" queueing_length_experimental="33.50"/>
            <lane id="edge_E_in_1" queueing_time="19.00" queueing_length="21.51" queueing_length_experimental="21.51"/>
            <lane id="edge_W_in_0" queueing_time="21.00" queueing_length="29.01" queueing_length_experimental="29.01"/>
            <lane id="edge_W_in_1" queueing_time="12.00" queueing_length="17.50" queueing_length_experimental="17.50"/>
        </lanes>
    </data>
    <data timestep="42.00">
        <lanes>
            <lane id="edge_E_in_0" queueing_time="18.00" queueing_length="33.50" queueing_length_experimental="33.50"/>
            <lane id="edge_E_in_1" queueing_time="20.00" queueing_length="21.51" queueing_length_experimental="21.51"/>
            <lane id="edge_W_in_0" queueing_time="22.00" queueing_length="29.01" queueing_length_experimental="29.01"/>
            <lane id="edge_W_in_1" queueing_time="13.00" queueing_length="17.50" queueing_length_experimental="17.50"/>
        </lanes>
    </data>
    <data timestep="43.00">
        <lanes>
            <lane id="edge_E_in_0" queueing_time="19.00" queueing_length="33.50" queueing_length_experimental="33.50"/>
            <lane id="edge_E_in_1" queueing_time="21.00" queueing_length="21.50" queueing_length_experimental="37.03"/>
            <lane id="edge_W_in_0" queueing_time="23.00" queueing_length="29.01" queueing_length_experimental="29.01"/>
            <lane id="edge_W_in_1" queueing_time="14.00" queueing_length="17.50" queueing_length_experimental="17.50"/>
        </lanes>
    </data>
    <data timestep="44.00">
        <lanes>
            <lane id="edge_E_in_0" queueing_time="20.00" queueing_length="33.50" queueing_length_experimental="33.50"/>
            <lane id="edge_E_in_1" queueing_time="22.00" queueing_length="21.50" queueing_length_experimental="36.60"/>
            <lane id="edge_W_in_0" queueing_time="24.00" queueing_length="29.01" queueing_length_experimental="44.08"/>
            <lane id="edge_W_in_1" queueing_time="15.00" queueing_length="17.50" queueing_length_experimental="17.50"/>
        </lanes>
    </data>
    <data timestep="45.00">
        <lanes>
            <lane id="edge_E_in_0" queueing_time="12.00" queueing_length="33.50" queueing_length_experimental="41.16"/>
            <lane id="edge_E_in_1" queueing_time="17.00" queueing_length="36.53" queueing_length_experimental="36.53"/>
            <lane id="edge_W_in_0" queueing_time="22.00" queueing_length="44.01" queueing_length_experimental="44.01"/>
            <lane id="edge_W_in_1" queueing_time="9.00" queueing_length="17.50" queueing_length_experimental="17.50"/>
        </lanes>
    </data>
    <data timestep="46.00">
        <lanes>
            <lane id="edge_E_in_0" queueing_time="7.00" queueing_length="33.50" queueing_length_experimental="41.03"/>
            <lane id="edge_E_in_1" queueing_time="13.00" queueing_length="36.51" queueing_length_experimental="36.51"/>
            <lane id="edge_N_in_1" queueing_time="0.00" queueing_length="0.00" queueing_length_experimental="6.45"/>
            <lane id="edge_W_in_0" queueing_time="14.00" queueing_length="44.01" queueing_length_experimental="44.01"/>
            <lane id="edge_W_in_1" queueing_time="8.00" queueing_length="17.50" queueing_length_experimental="17.50"/>
        </lanes>
    </data>
    <data timestep="47.00">
        <lanes>
            <lane id=":center_8_0" queueing_time="0.00" queueing_length="0.00" queueing_length_experimental="5.30"/>
            <lane id="edge_E_in_0" queueing_time="1.00" queueing_length="41.01" queueing_length_experimental="41.01"/>
            <lane id="edge_E_in_1" queueing_time="7.00" queueing_length="36.51" queueing_length_experimental="41.10"/>
            <lane id="edge_N_in_1" queueing_time="0.00" queueing_length="0.00" queueing_length_experimental="6.06"/>
            <lane id="edge_W_in_0" queueing_time="14.00" queueing_length="44.01" queueing_length_experimental="44.01"/>
            <lane id="edge_W_in_1" queueing_time="0.00" queueing_length="0.00" queueing_length_experimental="25.66"/>
        </lanes>
    </data>
    <data timestep="48.00">
        <lanes>
            <lane id=":center_8_0" queueing_time="0.00" queueing_length="0.00" queueing_length_experimental="5.18"/>
            <lane id="edge_E_in_0" queueing_time="0.00" queueing_length="0.00" queueing_length_experimental="40.55"/>
            <lane id="edge_E_in_1" queueing_time="4.00" queueing_length="36.51" queueing_length_experimental="40.51"/>
            <lane id="edge_N_in_1" queueing_time="1.00" queueing_length="6.02" queueing_length_experimental="14.18"/>
            <lane id="edge_W_in_0" queueing_time="12.00" queueing_length="44.01" queueing_length_experimental="44.01"/>
            <lane id="edge_W_in_1" queueing_time="0.00" queueing_length="0.00" queueing_length_experimental="33.46"/>
        </lanes>
    </data>
    <data timestep="49.00">
        <lanes>
            <lane id=":center_8_0" queueing_time="1.00" queueing_length="5.11" queueing_length_experimental="5.11"/>
            <lane id="edge_E_in_0" queueing_time="0.00" queueing_length="0.00" queueing_length_experimental="39.20"/>
            <lane id="edge_E_in_1" queueing_time="1.00" queueing_length="40.51" queueing_length_experimental="40.51"/>
            <lane id="edge_N_in_1" queueing_time="2.00" queueing_length="6.01" queueing_length_experimental="13.67"/>
            <lane id="edge_W_in_0" queueing_time="5.00" queueing_length="44.01" queueing_length_experimental="52.13"/>
            <lane id="edge_W_in_1" queueing_time="0.00" queueing_length="0.00" queueing_length_experimental="32.42"/>
        </lanes>
    </data>
    <data timestep="50.00">
        <lanes>
            <lane id=":center_8_0" queueing_time="2.00" queueing_length="5.10" queueing_length_experimental="5.10"/>
            <lane id="edge_E_in_1" queueing_time="0.00" queueing_length="0.00" queueing_length_experimental="48.24"/>
            <lane id="edge_N_in_1" queueing_time="3.00" queueing_length="6.00" queueing_length_experimental="13.57"/>
            <lane id="edge_W_in_0" queueing_time="0.00" queueing_length="0.00" queueing_length_experimental="51.60"/>
        </lanes>
    </data>
    <data timestep="51.00">
        <lanes>
            <lane id=":center_8_0" queueing_time="3.00" queueing_length="5.10" queueing_length_experimental="5.10"/>
            <lane id="edge_E_in_1" queueing_time="1.00" queueing_length="4.09" queueing_length_experimental="47.76"/>
            <lane id="edge_N_in_1" queueing_time="4.00" queueing_length="13.52" queueing_length_experimental="13.52"/>
            <lane id="edge_W_in_0" queueing_time="0.00" queueing_length="0.00" queueing_length_experimental="51.27"/>
        </lanes>
    </data>
    <data timestep="52.00">
        <lanes>
            <lane id=":center_8_0" queueing_time="4.00" queueing_length="5.10" queueing_length_experimental="5.10"/>
            <lane id="edge_E_in_1" queueing_time="2.00" queueing_length="11.65" queueing_length_experimental="15.75"/>
            <lane id="edge_N_in_0" queueing_time="0.00" queueing_length="0.00" queueing_length_experimental="6.29"/>
            <lane id="edge_N_in_1" queueing_time="5.00" queueing_length="13.50" queueing_length_experimental="13.50"/>
            <lane id="edge_W_in_0" queueing_time="0.00" queueing_length="0.00" queueing_length_experimental="58.98"/>
        </lanes>
    </data>
    <data timestep="53.00">
        <lanes>
            <lane id=":center_8_0" queueing_time="5.00" queueing_length="5.10" queueing_length_experimental="5.10"/>
            <lane id="edge_E_in_1" queueing_time="3.00" queueing_length="15.66" queueing_length_experimental="45.42"/>
            <lane id="edge_N_in_0" queueing_time="0.00" queueing_length="0.00" queueing_length_experimental="6.14"/>
            <lane id="edge_N_in_1" queueing_time="6.00" queueing_length="13.50" queueing_length_experimental="13.50"/>
            <lane id="edge_W_in_0" queueing_time="0.00" queueing_length="0.00" queueing_length_experimental="58.02"/>
        </lanes>
    </data>
    <data timestep="54.00">
        <lanes>
            <lane id=":center_8_0" queueing_time="6.00" queueing_length="5.10" queueing_length_experimental="5.10"/>
            <lane id="edge_E_in_1" queueing_time="4.00" queueing_length="30.71" queueing_length_experimental="44.29"/>
            <lane id="edge_N_in_0" queueing_time="0.00" queueing_length="0.00" queueing_length_experimental="6.00"/>
            <lane id="edge_N_in_1" queueing_time="7.00" queueing_length="13.50" queueing_length_experimental="13.50"/>
            <lane id="edge_W_in_0" queueing_time="0.00" queueing_length="0.00" queueing_length_experimental="57.03"/>
        </lanes>
    </data>
    <data timestep="55.00">
        <lanes>
            <lane id="edge_E_in_1" queueing_time="5.00" queueing_length="30.66" queueing_length_experimental="34.86"/>
            <lane id="edge_N_in_0" queueing_time="1.00" queueing_length="6.00" queueing_length_experimental="6.00"/>
            <lane id="edge_N_in_1" queueing_time="8.00" queueing_length="13.50" queueing_length_experimental="13.50"/>
        </lanes>
    </data>
    <data timestep="56.00">
        <lanes>
            <lane id=":center_18_0" queueing_time="0.00" queueing_length="0.00" queueing_length_experimental="5.48"/>
            <lane id="edge_E_in_1" queueing_time="5.00" queueing_length="30.63" queueing_length_experimental="42.46"/>
            <lane id="edge_N_in_0" queueing_time="2.00" queueing_length="6.00" queueing_length_experimental="13.63"/>
            <lane id="edge_N_in_1" queueing_time="9.00" queueing_length="13.50" queueing_length_experimental="13.50"/>
        </lanes>
    </data>
    <data timestep="57.00">
        <lanes>
            <lane id="edge_E_in_0" queueing_time="4.00" queueing_length="30.61" queueing_length_experimental="30.61"/>
            <lane id="edge_E_in_1" queueing_time="5.00" queueing_length="34.65" queueing_length_experimental="42.20"/>
            <lane id="edge_N_in_0" queueing_time="3.00" queueing_length="13.56" queueing_length_experimental="13.56"/>
            <lane id="edge_N_in_1" queueing_time="10.00" queueing_length="13.50" queueing_length_experimental="13.50"/>
        </lanes>
    </data>
    <data timestep="58.00">
        <lanes>
            <lane id="edge_E_in_0" queueing_time="0.00" queueing_length="0.00" queueing_length_experimental="29.52"/>
            <lane id="edge_E_in_1" queueing_time="1.00" queueing_length="42.16" queueing_length_experimental="42.16"/>
            <lane id="edge_N_in_0" queueing_time="4.00" queueing_length="13.51" queueing_length_experimental="13.51"/>
            <lane id="edge_N_in_1" queueing_time="11.00" queueing_length="13.50" queueing_length_experimental="13.50"/>
        </lanes>
    </data>
    <data timestep="59.00">
        <lanes>
            <lane id="edge_N_in_0" queueing_time="5.00" queueing_length="13.50" queueing_length_experimental="13.50"/>
            <lane id="edge_N_in_1" queueing_time="12.00" queueing_length="13.50" queueing_length_experimental="13.50"/>
        </lanes>
    </data>
    <data timestep="60.00">
        <lanes>
            <lane id=":center_18_0" queueing_time="0.00" queueing_length="0.00" queueing_length_experimental="5.36"/>
            <lane id="edge_N_in_0" queueing_time="6.00" queueing_length="13.50" queueing_length_experimental="13.50"/>
            <lane id="edge_N_in_1" queueing_time="13.00" queueing_length="13.50" queueing_length_experimental="13.50"/>
        </lanes>
    </data>
    <data timestep="61.00">
        <lanes>
            <lane id=":center_18_0" queueing_time="0.00" queueing_length="0.00" queueing_length_experimental="5.13"/>
            <lane id="edge_N_in_0" queueing_time="7.00" queueing_length="13.50" queueing_length_experimental="21.01"/>
            <lane id="edge_N_in_1" queueing_time="14.00" queueing_length="13.50" queueing_length_experimental="29.05"/>
        </lanes>
    </data>
    <data timestep="62.00">
        <lanes>
            <lane id=":center_18_0" queueing_time="1.00" queueing_length="5.11" queueing_length_experimental="5.11"/>
            <lane id="edge_N_in_0" queueing_time="8.00" queueing_length="21.01" queueing_length_experimental="21.01"/>
            <lane id="edge_N_in_1" queueing_time="15.00" queueing_length="13.50" queueing_length_experimental="28.58"/>
            <lane id="edge_S_in_0" queueing_time="0.00" queueing_length="0.00" queueing_length_experimental="13.06"/>
            <lane id="edge_S_in_1" queueing_time="0.00" queueing_length="0.00" queueing_length_experimental="6.23"/>
            <lane id="edge_W_in_1" queueing_time="0.00" queueing_length="0.00" queueing_length_experimental="7.89"/>
        </lanes>
    </data>
    <data timestep="63.00">
        <lanes>
            <lane id=":center_18_0" queueing_time="2.00" queueing_length="5.10" queueing_length_experimental="5.10"/>
            <lane id="edge_N_in_0" queueing_time="9.00" queueing_length="21.00" queueing_length_experimental="21.00"/>
            <lane id="edge_N_in_1" queueing_time="16.00" queueing_length="28.53" queueing_length_experimental="36.31"/>
            <lane id="edge_S_in_0" queueing_time="1.00" queueing_length="13.02" queueing_length_experimental="21.16"/>
            <lane id="edge_S_in_1" queueing_time="0.00" queueing_length="0.00" queueing_length_experimental="6.03"/>
            <lane id="edge_W_in_1" queueing_time="0.00" queueing_length="0.00" queueing_length_experimental="7.61"/>
        </lanes>
    </data>
    <data timestep="64.00">
        <lanes>
            <lane id=":center_18_0" queueing_time="3.00" queueing_length="5.10" queueing_length_experimental="5.10"/>
            <lane id="edge_N_in_0" queueing_time="10.00" queueing_length="21.00" queueing_length_experimental="21.00"/>
            <lane id="edge_N_in_1" queueing_time="17.00" queueing_length="28.51" queueing_length_experimental="36.14"/>
            <lane id="edge_S_in_0" queueing_time="2.00" queueing_length="13.01" queueing_length_experimental="20.64"/>
            <lane id="edge_S_in_1" queueing_time="1.00" queueing_length="6.01" queueing_length_experimental="6.01"/>
            <lane id="edge_W_in_1" queueing_time="1.00" queueing_length="7.60" queueing_length_experimental="7.60"/>
        </lanes>
    </data>
    <data timestep="65.00">
        <lanes>
            <lane id=":center_18_0" queueing_time="4.00" queueing_length="5.10" queueing_length_experimental="5.10"/>
            <lane id="edge_N_in_0" queueing_time="11.00" queueing_length="21.00" queueing_length_experimental="21.00"/>
            <lane id="edge_N_in_1" queueing_time="18.00" queueing_length="36.07" queueing_length_experimental="36.07"/>
            <lane id="edge_S_in_0" queueing_time="3.00" queueing_length="13.00" queueing_length_experimental="20.52"/>
            <lane id="edge_S_in_1" queueing_time="2.00" queueing_length="6.00" queueing_length_experimental="6.00"/>
            <lane id="edge_W_in_1" queueing_time="2.00" queueing_length="7.59" queueing_length_experimental="7.59"/>
        </lanes>
    </data>
    <data timestep="66.00">
        <lanes>
            <lane id=":center_18_0" queueing_time="5.00" queueing_length="5.10" queueing_length_experimental="5.10"/>
            <lane id="edge_N_in_0" queueing_time="12.00" queueing_length="21.00" queueing_length_experimental="21.00"/>
            <lane id="edge_N_in_1" queueing_time="19.00" queueing_length="36.02" queueing_length_experimental="36.02"/>
            <lane id="edge_S_in_0" queueing_time="4.00" queueing_length="20.51" queueing_length_experimental="20.51"/>
            <lane id="edge_S_in_1" queueing_time="3.00" queueing_length="6.00" queueing_length_experimental="6.00"/>
            <lane id="edge_W_in_1" queueing_time="3.00" queueing_length="7.59" queueing_length_experimental="7.59"/>
        </lanes>
    </data>
    <data timestep="67.00">
        <lanes>
            <lane id=":center_18_0" queueing_time="6.00" queueing_length="5.10" queueing_length_experimental="5.10"/>
            <lane id="edge_N_in_0" queueing_time="13.00" queueing_length="21.00" queueing_length_experimental="21.00"/>
            <lane id="edge_N_in_1" queueing_time="20.00" queueing_length="36.00" queueing_length_experimental="36.00"/>
            <lane id="edge_S_in_0" queueing_time="5.00" queueing_length="20.50" queueing_length_experimental="24.69"/>
            <lane id="edge_S_in_1" queueing_time="4.00" queueing_length="6.00" queueing_length_experimental="6.00"/>
            <lane id="edge_W_in_1" queueing_time="4.00" queueing_length="7.59" queueing_length_experimental="15.22"/>
        </lanes>
    </data>
    <data timestep="68.00">
        <lanes>
            <lane id=":center_18_0" queueing_time="7.00" queueing_length="5.10" queueing_length_experimental="5.10"/>
            <lane id="edge_N_in_0" queueing_time="14.00" queueing_length="21.00" queueing_length_experimental="21.00"/>
            <lane id="edge_N_in_1" queueing_time="21.00" queueing_length="36.00" queueing_length_experimental="36.00"/>
            <lane id="edge_S_in_0" queueing_time="6.00" queueing_length="20.50" queueing_length_experimental="24.52"/>
            <lane id="edge_S_in_1" queueing_time="5.00" queueing_length="6.00" queueing_length_experimental="6.00"/>
            <lane id="edge_W_in_1" queueing_time="5.00" queueing_length="15.12" queueing_length_experimental="15.12"/>
        </lanes>